Job co2ftf4-o2br.01 started on sahp5351.sandia.gov at Mon Feb  9 09:01:57 2004
jobid: sahp5351-0-4027aef4

  +--------------------------------------------------------------------+
  |  Jaguar version 5.5, release  11                                   |
  |                                                                    |
  |  Copyright 1991-2003 Schrodinger, LLC.                             |
  |  All Rights Reserved.                                              |
  |                                                                    |
  |  Use of this program should be acknowledged in publications as:    |
  |  Jaguar 5.5, Schrodinger, LLC, Portland, Oregon, 2003.             |
  +--------------------------------------------------------------------+
   
  start of program pre
  Job name: co2ftf4-o2br.01
  Executables used: /home/rmuller/Programs/schrodinger/jaguar-v55011/bin/Linux-x86
  Temporary files : /tmp/rmuller/co2ftf4-o2br.01
  Maestro file (input):  co2ftf4-o2br.01.mae
  Maestro file (output): co2ftf4-o2br.02.mae
  
  Input file comments:
   Geometry symmetrized to C2
   
   entry_name: co2ftf4-c2-trip-inc1
   
  
  basis set:             lacvp**         
  net molecular charge:    0
  multiplicity:            1
  
  This run will use ECP on   2  atoms
  number of basis functions....   1034
  
 Input geometry:
                                   angstroms
  atom               x                 y                 z
  C1            4.1007224914      1.0886790140      2.0895272958 
  C2            3.5336500088      2.3261670787      2.1398166796 
  C3            2.1135480250      2.1437158992      2.2450064056 
  N4            1.7946990185      0.8052830329      2.2602231038 
  C5            3.0025040904      0.1456861875      2.1816093976 
  C6            3.1538727557     -1.2262037554      2.2402884907 
  C7            2.1074553195     -2.1280089180      2.3173696386 
  N8            0.7738738939     -1.8053904627      2.2706434755 
  C9            0.1065886796     -3.0070457107      2.3615150085 
  C10           1.0392538629     -4.0984821985      2.4725004249 
  C11           2.2829848551     -3.5523894511      2.4452279813 
  N12          -1.8670531336     -0.8037964230      2.2983255158 
  C13          -3.0670841822     -0.1427127738      2.2511142696 
  C14          -4.1675351621     -1.0867813741      2.1465829398 
  C15          -3.6007909335     -2.3239190327      2.1733570339 
  C16          -3.2067822350      1.2325786681      2.3264087377 
  C17          -2.1579965376      2.1322671846      2.3980485081 
  N18          -0.8218302257      1.8186117501      2.3301620048 
  C19          -0.1627405469      3.0230329963      2.3756273444 
  C20          -1.0997976271      4.1117761149      2.4931795486 
  C21          -2.3401934009      3.5581868246      2.5042119249 
  C22           1.2088982830      3.1852613060      2.3215529777 
  C23          -1.2648449523     -3.1730932619      2.3424341875 
  C24          -2.1795707978     -2.1379080158      2.2734171399 
  Co25         -0.0293773570      0.0039851684      2.1704019693 
  C26           5.5489707098      0.7726352936      1.8389114081 
  H27           4.0325630833      3.2847066291      2.0816354334 
  H28           4.1597016319     -1.6340473134      2.2602109599 
  H29           0.7570705014     -5.1397689162      2.5579687141 
  H30           3.2419401841     -4.0494724379      2.5159276589 
  C31          -5.6115381925     -0.7566513229      1.8858314820 
  H32          -4.0992132191     -3.2817834092      2.0989580270 
  H33          -4.2089773958      1.6471871452      2.3670551423 
  H34          -0.8217306770      5.1562945089      2.5487600561 
  H35          -3.3013812888      4.0514210791      2.5707654631 
  H36           1.6032420240      4.1953919784      2.3401359963 
  H37          -1.6503458101     -4.1870748747      2.3739578759 
  C38           3.7081273218     -2.1114738168     -2.3970750985 
  C39           4.2028648195     -0.8695674378     -2.1275007833 
  C40           3.0566309045      0.0207977727     -2.1179257063 
  N41           1.8985007921     -0.6804705781     -2.3385400987 
  C42           2.2780179949     -1.9875521238     -2.5027016097 
  C43           1.4171692206     -3.0679837606     -2.6228255477 
  C44           0.0442419850     -2.9920513387     -2.4741907018 
  N45          -0.6689022748     -1.8360629521     -2.2476895274 
  C46          -1.9750773092     -2.2351200439     -2.0883404156 
  C47          -2.0818541091     -3.6679080392     -2.1997151434 
  C48          -0.8322656130     -4.1354439802     -2.4619001860 
  N49          -1.8203954594      0.6923167711     -2.2538248693 
  C50          -2.2057563680      2.0009198300     -2.4421492425 
  C51          -3.6342017270      2.1184009802     -2.3441826114 
  C52          -4.1277912521      0.8790984441     -2.0595300534 
  C53          -1.3543133821      3.0777009134     -2.6224845208 
  C54           0.0258067867      3.0055885639     -2.5421736731 
  N55           0.7421297534      1.8546373916     -2.3483609593 
  C56           2.0433225762      2.2464826694     -2.1683039268 
  C57           2.1484107431      3.6835513901     -2.2464707598 
  C58           0.8994065977      4.1540738351     -2.5023183899 
  C59           3.1268407037      1.3990173918     -1.9967398240 
  C60          -3.0602291708     -1.3899747647     -1.9233995007 
  C61          -2.9816335467     -0.0116738991     -2.0325485336 
  Co62          0.0384120245      0.0072578423     -2.1771576178 
  H63           4.2539161672     -3.0434160410     -2.4826243801 
  C64           5.6122731778     -0.5067554288     -1.7524396427 
  H65           1.8566982003     -4.0529113203     -2.7447469471 
  H66          -3.0075023570     -4.2206690929     -2.1060236640 
  H67          -0.5116714658     -5.1558289896     -2.6271888209 
  H68          -4.1827151416      3.0470335466     -2.4481117015 
  C69          -5.5452082533      0.5218993294     -1.7111678588 
  H70          -1.8022956279      4.0558497651     -2.7667481305 
  H71           3.0714709242      4.2362991262     -2.1295005782 
  H72           0.5719129808      5.1800720449     -2.6093998631 
  H73           4.0960479939      1.8512627445     -1.8120952511 
  H74          -4.0307050104     -1.8434818670     -1.7489538633 
  C75           5.8140736209      0.8230240386      0.3260045000 
  N76           5.7377558893     -0.3901226036     -0.2969022721 
  C77          -5.8338731010     -0.7944007447      0.3631345988 
  N78          -5.7193571518      0.4168793344     -0.2594238105 
  O79          -6.0535899560     -1.8425295048     -0.2325120036 
  O80           6.0432756102      1.8783099706     -0.2542805635 
  H81           6.1847962274      1.5296413972      2.3049849012 
  H82           5.8302918981     -0.2027882497      2.2513425093 
  H83          -6.2607109407     -1.5147777789      2.3307029940 
  H84          -5.8924088096      0.2139149750      2.3094343691 
  H85           5.3654010493     -1.1644014093      0.2363342420 
  H86          -5.3622851034      1.1915667110      0.2829494444 
  H87           6.3060344458     -1.2692226746     -2.1233724932 
  H88           5.9256413684      0.4569240031     -2.1594023344 
  H89          -6.2269532426      1.2806276327     -2.1112341256 
  H90          -5.8470447664     -0.4457387259     -2.1189766951 
  O91          -0.3637203764     -0.0923526526      0.3120051749 
  O92           0.2771567067      0.0473669264     -0.2774981366 
   
  principal moments of inertia:
        amu*angstrom^2:     7799.75922    12171.43143    12400.17980
                g*cm^2: 1.29518137E-36 2.02111512E-36 2.05909970E-36
   
  rotational constants:
               cm^(-1):     0.00216130     0.00138502     0.00135947
                   GHz:     0.06479419     0.04152175     0.04075579
   
 
Number of optimization coordinates:   403
Number of independent coordinates:    403
Number of non-redundant coordinates:  270
Number of constrained coordinates:      0
 
Number of geometric degrees of freedom:   270
Maximum geometric degrees of freedom:     270
 " " " " " excluding dummy atoms:         270
 
  Molecular weight:     904.11 amu
  
   
  Stoichiometry: Co2C46N10H30O4
  Molecular Point Group: C1      
  Point Group used: C1
 
  bond lengths (angstroms):
 
 C1      -C2      :   1.362159      C1      -C5      :   1.450448
 C1      -C26     :   1.503368      C2      -C3      :   1.435633
 C2      -H27     :   1.082173      C3      -N4      :   1.375972
 C3      -C22     :   1.381690      N4      -C5      :   1.378420
 N4      -Co25    :   1.994342      C5      -C6      :   1.381462
 C6      -C7      :   1.383540      C6      -H28     :   1.085553
 C7      -N8      :   1.372846      C7      -C11     :   1.440839
 N8      -C9      :   1.377499      N8      -Co25    :   1.982196
 C9      -C10     :   1.439936      C9      -C23     :   1.381581
 C10     -C11     :   1.358612      C10     -H29     :   1.082225
 C11     -H30     :   1.082444      N12     -C13     :   1.370888
 N12     -C24     :   1.370453      N12     -Co25    :   2.011449
 C13     -C14     :   1.453680      C13     -C16     :   1.384417
 C14     -C15     :   1.361038      C14     -C31     :   1.504035
 C15     -C24     :   1.436829      C15     -H32     :   1.082342
 C16     -C17     :   1.383663      C16     -H33     :   1.085333
 C17     -N18     :   1.374165      C17     -C21     :   1.441427
 N18     -C19     :   1.373716      N18     -Co25    :   1.986548
 C19     -C20     :   1.441269      C19     -C22     :   1.382257
 C20     -C21     :   1.358368      C20     -H34     :   1.082326
 C21     -H35     :   1.082401      C22     -H36     :   1.084535
 C23     -C24     :   1.383147      C23     -H37     :   1.085248
 Co25    -O91     :   1.890689      C26     -C75     :   1.536784
 C26     -H81     :   1.092958      C26     -H82     :   1.095761
 C31     -C77     :   1.539306      C31     -H83     :   1.092745
 C31     -H84     :   1.095594      C38     -C39     :   1.363733
 C38     -C42     :   1.439349      C38     -H63     :   1.083384
 C39     -C40     :   1.451446      C39     -C64     :   1.502909
 C40     -N41     :   1.371756      C40     -C59     :   1.385318
 N41     -C42     :   1.370928      N41     -Co62    :   1.989710
 C42     -C43     :   1.386659      C43     -C44     :   1.383036
 C43     -H65     :   1.085418      C44     -N45     :   1.377021
 C44     -C48     :   1.440751      N45     -C46     :   1.375039
 N45     -Co62    :   1.975626      C46     -C47     :   1.441071
 C46     -C60     :   1.385291      C47     -C48     :   1.359707
 C47     -H66     :   1.082196      C48     -H67     :   1.082260
 N49     -C50     :   1.377102      N49     -C61     :   1.375878
 N49     -Co62    :   1.982511      C50     -C51     :   1.436612
 C50     -C53     :   1.384534      C51     -C52     :   1.364012
 C51     -H68     :   1.083525      C52     -C61     :   1.451854
 C52     -C69     :   1.502670      C53     -C54     :   1.384334
 C53     -H70     :   1.085484      C54     -N55     :   1.369442
 C54     -C58     :   1.443532      N55     -C56     :   1.370790
 N55     -Co62    :   1.984273      C56     -C57     :   1.443025
 C56     -C59     :   1.386233      C57     -C58     :   1.358993
 C57     -H71     :   1.082244      C58     -H72     :   1.082308
 C59     -H73     :   1.085349      C60     -C61     :   1.384848
 C60     -H74     :   1.085322      Co62    -O92     :   1.915023
 C64     -N76     :   1.465585      C64     -H87     :   1.095560
 C64     -H88     :   1.092015      C69     -N78     :   1.465919
 C69     -H89     :   1.095672      C69     -H90     :   1.092583
 C75     -N76     :   1.365856      C75     -O80     :   1.225925
 N76     -H85     :   1.011186      C77     -N78     :   1.366709
 C77     -O79     :   1.225416      N78     -H86     :   1.010846
 O91     -O92     :   0.881907
 
  bond angles:
 
 C5      -C1      -C2      : 105.847840  C26     -C1      -C2      : 126.739551
 C26     -C1      -C5      : 127.107056  C3      -C2      -C1      : 107.400525
 H27     -C2      -C1      : 127.645442  H27     -C2      -C3      : 124.928185
 N4      -C3      -C2      : 110.710739  C22     -C3      -C2      : 123.773848
 C22     -C3      -N4      : 125.515327  C5      -N4      -C3      : 105.176112
 Co25    -N4      -C3      : 127.032569  Co25    -N4      -C5      : 127.343169
 N4      -C5      -C1      : 110.852218  C6      -C5      -C1      : 124.427857
 C6      -C5      -N4      : 124.665724  C7      -C6      -C5      : 124.526508
 H28     -C6      -C5      : 118.385518  H28     -C6      -C7      : 117.057162
 N8      -C7      -C6      : 125.424535  C11     -C7      -C6      : 123.860182
 C11     -C7      -N8      : 110.712315  C9      -N8      -C7      : 105.266971
 Co25    -N8      -C7      : 127.580488  Co25    -N8      -C9      : 127.108272
 C10     -C9      -N8      : 110.642614  C23     -C9      -N8      : 125.788392
 C23     -C9      -C10     : 123.567679  C11     -C10     -C9      : 106.662225
 H29     -C10     -C9      : 124.506745  H29     -C10     -C11     : 128.830989
 C10     -C11     -C7      : 106.715248  H30     -C11     -C7      : 124.589948
 H30     -C11     -C10     : 128.690278  C24     -N12     -C13     : 105.616547
 Co25    -N12     -C13     : 127.149202  Co25    -N12     -C24     : 126.735760
 C14     -C13     -N12     : 110.607389  C16     -C13     -N12     : 124.437673
 C16     -C13     -C14     : 124.937013  C15     -C14     -C13     : 105.883070
 C31     -C14     -C13     : 126.634884  C31     -C14     -C15     : 127.064263
 C24     -C15     -C14     : 107.192190  H32     -C15     -C14     : 127.684970
 H32     -C15     -C24     : 125.089705  C17     -C16     -C13     : 124.908423
 H33     -C16     -C13     : 118.340271  H33     -C16     -C17     : 116.717065
 N18     -C17     -C16     : 125.876917  C21     -C17     -C16     : 123.451541
 C21     -C17     -N18     : 110.630484  C19     -N18     -C17     : 105.352783
 Co25    -N18     -C17     : 126.894958  Co25    -N18     -C19     : 127.745432
 C20     -C19     -N18     : 110.675323  C22     -C19     -N18     : 125.289375
 C22     -C19     -C20     : 124.035007  C21     -C20     -C19     : 106.648524
 H34     -C20     -C19     : 124.483573  H34     -C20     -C21     : 128.865188
 C20     -C21     -C17     : 106.686482  H35     -C21     -C17     : 124.580027
 H35     -C21     -C20     : 128.732203  C19     -C22     -C3      : 124.291754
 H36     -C22     -C3      : 117.709273  H36     -C22     -C19     : 117.998972
 C24     -C23     -C9      : 124.556424  H37     -C23     -C9      : 117.678069
 H37     -C23     -C24     : 117.762627  C15     -C24     -N12     : 110.662004
 C23     -C24     -N12     : 125.230202  C23     -C24     -C15     : 124.106722
 N8      -Co25    -N4      :  89.647128  N12     -Co25    -N4      : 173.772286
 N12     -Co25    -N8      :  90.024599  N18     -Co25    -N4      :  89.668653
 N18     -Co25    -N8      : 172.480494  N18     -Co25    -N12     :  89.843899
 O91     -Co25    -N4      : 103.089954  O91     -Co25    -N8      :  94.292942
 O91     -Co25    -N12     :  83.136149  O91     -Co25    -N18     :  93.155710
 C75     -C26     -C1      : 108.868679  H81     -C26     -C1      : 110.103988
 H81     -C26     -C75     : 107.262102  H82     -C26     -C1      : 111.821412
 H82     -C26     -C75     : 110.820363  H82     -C26     -H81     : 107.860317
 C77     -C31     -C14     : 107.745390  H83     -C31     -C14     : 110.334501
 H83     -C31     -C77     : 107.451573  H84     -C31     -C14     : 111.934564
 H84     -C31     -C77     : 111.540974  H84     -C31     -H83     : 107.752236
 C42     -C38     -C39     : 107.250794  H63     -C38     -C39     : 128.040273
 H63     -C38     -C42     : 124.667526  C40     -C39     -C38     : 105.869185
 C64     -C39     -C38     : 127.544967  C64     -C39     -C40     : 126.217698
 N41     -C40     -C39     : 110.614263  C59     -C40     -C39     : 124.809063
 C59     -C40     -N41     : 124.434092  C42     -N41     -C40     : 105.839793
 Co62    -N41     -C40     : 126.835847  Co62    -N41     -C42     : 126.730761
 N41     -C42     -C38     : 110.386652  C43     -C42     -C38     : 123.786333
 C43     -C42     -N41     : 125.548252  C44     -C43     -C42     : 124.345541
 H65     -C43     -C42     : 117.733909  H65     -C43     -C44     : 117.637216
 N45     -C44     -C43     : 125.300969  C48     -C44     -C43     : 124.143509
 C48     -C44     -N45     : 110.472146  C46     -N45     -C44     : 105.508609
 Co62    -N45     -C44     : 127.137009  Co62    -N45     -C46     : 127.353619
 C47     -C46     -N45     : 110.485792  C60     -C46     -N45     : 125.510367
 C60     -C46     -C47     : 123.899548  C48     -C47     -C46     : 106.779070
 H66     -C47     -C46     : 124.369468  H66     -C47     -C48     : 128.838998
 C47     -C48     -C44     : 106.729932  H67     -C48     -C44     : 124.521737
 H67     -C48     -C47     : 128.746614  C61     -N49     -C50     : 105.785047
 Co62    -N49     -C50     : 126.585744  Co62    -N49     -C61     : 127.467287
 C51     -C50     -N49     : 110.281140  C53     -C50     -N49     : 125.785969
 C53     -C50     -C51     : 123.831614  C52     -C51     -C50     : 107.441986
 H68     -C51     -C50     : 124.534197  H68     -C51     -C52     : 127.989594
 C61     -C52     -C51     : 106.000839  C69     -C52     -C51     : 127.278629
 C69     -C52     -C61     : 126.477160  C54     -C53     -C50     : 124.404104
 H70     -C53     -C50     : 117.666879  H70     -C53     -C54     : 117.781269
 N55     -C54     -C53     : 124.992937  C58     -C54     -C53     : 124.297997
 C58     -C54     -N55     : 110.377672  C56     -N55     -C54     : 105.953827
 Co62    -N55     -C54     : 127.529775  Co62    -N55     -C56     : 126.259338
 C57     -C56     -N55     : 110.284749  C59     -C56     -N55     : 125.693184
 C59     -C56     -C57     : 123.959220  C58     -C57     -C56     : 106.742258
 H71     -C57     -C56     : 124.394856  H71     -C57     -C58     : 128.858383
 C57     -C58     -C54     : 106.614928  H72     -C58     -C54     : 124.636066
 H72     -C58     -C57     : 128.677807  C56     -C59     -C40     : 123.901782
 H73     -C59     -C40     : 118.338997  H73     -C59     -C56     : 117.665301
 C61     -C60     -C46     : 123.597750  H74     -C60     -C46     : 117.688116
 H74     -C60     -C61     : 118.639447  C52     -C61     -N49     : 110.448899
 C60     -C61     -N49     : 124.737917  C60     -C61     -C52     : 124.562241
 N45     -Co62    -N41     :  90.533195  N49     -Co62    -N41     : 173.131171
 N49     -Co62    -N45     :  89.160505  N55     -Co62    -N41     :  89.040540
 N55     -Co62    -N45     : 173.003018  N55     -Co62    -N49     :  90.428010
 O92     -Co62    -N41     :  88.346756  O92     -Co62    -N45     :  95.715595
 O92     -Co62    -N49     :  98.511880  O92     -Co62    -N55     :  91.253431
 N76     -C64     -C39     : 110.325332  H87     -C64     -C39     : 109.959000
 H87     -C64     -N76     : 109.720012  H88     -C64     -C39     : 112.901234
 H88     -C64     -N76     : 105.980985  H88     -C64     -H87     : 107.834780
 N78     -C69     -C52     : 111.018865  H89     -C69     -C52     : 109.734256
 H89     -C69     -N78     : 109.712094  H90     -C69     -C52     : 112.617755
 H90     -C69     -N78     : 105.865221  H90     -C69     -H89     : 107.764645
 N76     -C75     -C26     : 114.217957  O80     -C75     -C26     : 121.767027
 O80     -C75     -N76     : 123.996365  C75     -N76     -C64     : 121.897221
 H85     -N76     -C64     : 115.547430  H85     -N76     -C75     : 117.398913
 N78     -C77     -C31     : 114.630475  O79     -C77     -C31     : 121.850569
 O79     -C77     -N78     : 123.481014  C77     -N78     -C69     : 121.638610
 H86     -N78     -C69     : 115.753301  H86     -N78     -C77     : 117.671930
 O92     -O91     -Co25    : 121.362198  O91     -O92     -Co62    : 124.691977
 
  torsional angles:
 
 C1      -C2      -C3      -N4      :  -0.008757
 C1      -C2      -C3      -C22     : 179.889718
 C1      -C5      -N4      -C3      :  -1.107394
 C1      -C5      -N4      -Co25    : 171.588968
 C1      -C5      -C6      -C7      :-179.457527
 C1      -C5      -C6      -H28     :   2.625285
 C1      -C26     -C75     -N76     : -95.069539
 C1      -C26     -C75     -O80     :  83.418769
 C2      -C1      -C5      -N4      :   1.123778
 C2      -C1      -C5      -C6      :-176.302055
 C2      -C1      -C26     -C75     : -81.271128
 C2      -C1      -C26     -H81     :  36.053902
 C2      -C1      -C26     -H82     : 155.945712
 C2      -C3      -N4      -C5      :   0.692598
 C2      -C3      -N4      -Co25    :-172.033904
 C2      -C3      -C22     -C19     : 177.615882
 C2      -C3      -C22     -H36     :  -2.374216
 C3      -C2      -C1      -C5      :  -0.647199
 C3      -C2      -C1      -C26     : 173.337633
 C3      -N4      -C5      -C6      : 176.311066
 C3      -N4      -Co25    -N8      :-179.858586
 C3      -N4      -Co25    -N12     : -92.866920
 C3      -N4      -Co25    -N18     :  -7.346942
 C3      -N4      -Co25    -O91     :  85.815930
 C3      -C22     -C19     -N18     :  -1.599705
 C3      -C22     -C19     -C20     : 178.183900
 N4      -C3      -C2      -H27     : 178.259937
 N4      -C3      -C22     -C19     :  -2.500788
 N4      -C3      -C22     -H36     : 177.509114
 N4      -C5      -C1      -C26     :-172.831883
 N4      -C5      -C6      -C7      :   3.467513
 N4      -C5      -C6      -H28     :-174.449676
 N4      -Co25    -N8      -C7      :  -2.335614
 N4      -Co25    -N8      -C9      : 174.881606
 N4      -Co25    -N12     -C13     :  95.376949
 N4      -Co25    -N12     -C24     : -93.907863
 N4      -Co25    -N18     -C17     :-177.356368
 N4      -Co25    -N18     -C19     :   3.735919
 N4      -Co25    -O91     -O92     :  11.126254
 C5      -C1      -C2      -H27     :-178.854508
 C5      -C1      -C26     -C75     :  91.467012
 C5      -C1      -C26     -H81     :-151.207958
 C5      -C1      -C26     -H82     : -31.316148
 C5      -N4      -C3      -C22     :-179.203721
 C5      -N4      -Co25    -N8      :   8.982564
 C5      -N4      -Co25    -N12     :  95.974230
 C5      -N4      -Co25    -N18     :-178.505793
 C5      -N4      -Co25    -O91     : -85.342920
 C5      -C6      -C7      -N8      :   3.917009
 C5      -C6      -C7      -C11     :-176.768745
 C6      -C5      -C1      -C26     :   9.742285
 C6      -C5      -N4      -Co25    : -10.992573
 C6      -C7      -N8      -C9      : 179.142226
 C6      -C7      -N8      -Co25    :  -3.157929
 C6      -C7      -C11     -C10     :-179.238362
 C6      -C7      -C11     -H30     :   1.478200
 C7      -N8      -C9      -C10     :   0.243009
 C7      -N8      -C9      -C23     :-179.350230
 C7      -N8      -Co25    -N12     :-176.116516
 C7      -N8      -Co25    -N18     : -87.123060
 C7      -N8      -Co25    -O91     : 100.764881
 C7      -C11     -C10     -C9      :  -0.009363
 C7      -C11     -C10     -H29     : 179.919270
 N8      -C7      -C6      -H28     :-178.140569
 N8      -C7      -C11     -C10     :   0.164222
 N8      -C7      -C11     -H30     :-179.119216
 N8      -C9      -C10     -C11     :  -0.147509
 N8      -C9      -C10     -H29     : 179.919956
 N8      -C9      -C23     -C24     :  -2.309760
 N8      -C9      -C23     -H37     : 177.057467
 N8      -Co25    -N12     -C13     :-177.651891
 N8      -Co25    -N12     -C24     :  -6.936703
 N8      -Co25    -N18     -C17     : -92.570331
 N8      -Co25    -N18     -C19     :  88.521957
 N8      -Co25    -O91     -O92     : -79.510533
 C9      -N8      -C7      -C11     :  -0.248979
 C9      -N8      -Co25    -N12     :   1.100705
 C9      -N8      -Co25    -N18     :  90.094160
 C9      -N8      -Co25    -O91     : -82.017899
 C9      -C10     -C11     -H30     : 179.234873
 C9      -C23     -C24     -N12     :  -4.309403
 C9      -C23     -C24     -C15     : 176.102857
 C10     -C9      -N8      -Co25    :-177.471262
 C10     -C9      -C23     -C24     : 178.147071
 C10     -C9      -C23     -H37     :  -2.485701
 C11     -C7      -C6      -H28     :   1.173677
 C11     -C7      -N8      -Co25    : 177.450865
 C11     -C10     -C9      -C23     : 179.456495
 N12     -C13     -C14     -C15     :   1.790601
 N12     -C13     -C14     -C31     :-171.179378
 N12     -C13     -C16     -C17     :   3.095473
 N12     -C13     -C16     -H33     :-174.700960
 N12     -C24     -C15     -C14     :  -0.447529
 N12     -C24     -C15     -H32     : 177.591941
 N12     -C24     -C23     -H37     : 176.323860
 N12     -Co25    -N18     -C17     :  -3.565002
 N12     -Co25    -N18     -C19     : 177.527285
 N12     -Co25    -O91     -O92     :-169.017649
 C13     -N12     -C24     -C15     :   1.534297
 C13     -N12     -C24     -C23     :-178.100889
 C13     -N12     -Co25    -N18     :   9.866476
 C13     -N12     -Co25    -O91     : -83.330870
 C13     -C14     -C15     -C24     :  -0.778603
 C13     -C14     -C15     -H32     :-178.751482
 C13     -C14     -C31     -C77     :  91.089281
 C13     -C14     -C31     -H83     :-151.884058
 C13     -C14     -C31     -H84     : -31.898644
 C13     -C16     -C17     -N18     :   3.923269
 C13     -C16     -C17     -C21     :-178.628825
 C14     -C13     -N12     -C24     :  -2.030377
 C14     -C13     -N12     -Co25    : 170.254015
 C14     -C13     -C16     -C17     :-178.590841
 C14     -C13     -C16     -H33     :   3.612726
 C14     -C15     -C24     -C23     : 179.192571
 C14     -C31     -C77     -N78     : -94.374489
 C14     -C31     -C77     -O79     :  83.458468
 C15     -C14     -C13     -C16     :-176.723600
 C15     -C14     -C31     -C77     : -80.427356
 C15     -C14     -C31     -H83     :  36.599305
 C15     -C14     -C31     -H84     : 156.584719
 C15     -C24     -N12     -Co25    :-170.792100
 C15     -C24     -C23     -H37     :  -3.263880
 C16     -C13     -N12     -C24     : 176.492761
 C16     -C13     -N12     -Co25    : -11.222847
 C16     -C13     -C14     -C31     :  10.306421
 C16     -C17     -N18     -C19     : 177.023197
 C16     -C17     -N18     -Co25    :  -2.081144
 C16     -C17     -C21     -C20     :-177.474597
 C16     -C17     -C21     -H35     :   2.143381
 C17     -N18     -C19     -C20     :   0.825627
 C17     -N18     -C19     -C22     :-179.366043
 C17     -N18     -Co25    -O91     :  79.551978
 C17     -C21     -C20     -C19     :   0.194167
 C17     -C21     -C20     -H34     : 179.607791
 N18     -C17     -C16     -H33     :-178.247981
 N18     -C17     -C21     -C20     :   0.315983
 N18     -C17     -C21     -H35     : 179.933962
 N18     -C19     -C20     -C21     :  -0.650634
 N18     -C19     -C20     -H34     : 179.903257
 N18     -C19     -C22     -H36     : 178.390367
 N18     -Co25    -N12     -C24     :-179.418336
 N18     -Co25    -O91     -O92     : 101.520073
 C19     -N18     -C17     -C21     :  -0.701705
 C19     -N18     -Co25    -O91     : -99.355735
 C19     -C20     -C21     -H35     :-179.402628
 C20     -C19     -N18     -Co25    : 179.919774
 C20     -C19     -C22     -H36     :  -1.826028
 C21     -C17     -C16     -H33     :  -0.800075
 C21     -C17     -N18     -Co25    :-179.806046
 C21     -C20     -C19     -C22     : 179.538157
 C22     -C3      -C2      -H27     :  -1.841589
 C22     -C3      -N4      -Co25    :   8.069777
 C22     -C19     -N18     -Co25    :  -0.271897
 C22     -C19     -C20     -H34     :   0.092047
 C23     -C9      -N8      -Co25    :   2.935499
 C23     -C9      -C10     -H29     :  -0.476040
 C23     -C24     -N12     -Co25    :   9.572713
 C23     -C24     -C15     -H32     :  -2.767958
 C24     -N12     -Co25    -O91     :  87.384318
 C24     -C15     -C14     -C31     : 172.151580
 Co25    -O91     -O92     -Co62    :-178.762442
 C26     -C1      -C2      -H27     :  -4.869677
 C26     -C75     -N76     -C64     : 163.812428
 C26     -C75     -N76     -H85     :  10.337718
 H29     -C10     -C11     -H30     :  -0.836494
 C31     -C14     -C15     -H32     :  -5.821299
 C31     -C77     -N78     -C69     : 163.518191
 C31     -C77     -N78     -H86     :   9.445088
 H34     -C20     -C21     -H35     :   0.010996
 C38     -C39     -C40     -N41     :   1.710904
 C38     -C39     -C40     -C59     :-174.102410
 C38     -C39     -C64     -N76     : -96.811482
 C38     -C39     -C64     -H87     :  24.342616
 C38     -C39     -C64     -H88     : 144.816138
 C38     -C42     -N41     -C40     :  -0.605851
 C38     -C42     -N41     -Co62    :-172.211798
 C38     -C42     -C43     -C44     : 167.298090
 C38     -C42     -C43     -H65     :  -6.429202
 C39     -C38     -C42     -N41     :   1.701180
 C39     -C38     -C42     -C43     :-172.525489
 C39     -C40     -N41     -C42     :  -0.657601
 C39     -C40     -N41     -Co62    : 170.936744
 C39     -C40     -C59     -C56     : 170.991250
 C39     -C40     -C59     -H73     :  -5.396711
 C39     -C64     -N76     -C75     :-104.332962
 C39     -C64     -N76     -H85     :  49.597432
 C40     -C39     -C38     -C42     :  -1.981230
 C40     -C39     -C38     -H63     :-179.703539
 C40     -C39     -C64     -N76     :  75.221021
 C40     -C39     -C64     -H87     :-163.624881
 C40     -C39     -C64     -H88     : -43.151358
 C40     -N41     -C42     -C43     : 173.496271
 C40     -N41     -Co62    -N45     :-166.873938
 C40     -N41     -Co62    -N49     : 105.719976
 C40     -N41     -Co62    -N55     :  20.110657
 C40     -N41     -Co62    -O92     : -71.171174
 C40     -C59     -C56     -N55     :   6.745842
 C40     -C59     -C56     -C57     :-170.087408
 N41     -C40     -C39     -C64     :-171.728385
 N41     -C40     -C59     -C56     :  -4.256403
 N41     -C40     -C59     -H73     : 179.355636
 N41     -C42     -C38     -H63     : 179.520156
 N41     -C42     -C43     -C44     :  -6.046861
 N41     -C42     -C43     -H65     :-179.774154
 N41     -Co62    -N45     -C44     :  -5.660776
 N41     -Co62    -N45     -C46     : 174.703725
 N41     -Co62    -N49     -C50     : -82.349498
 N41     -Co62    -N49     -C61     : 102.944359
 N41     -Co62    -N55     -C54     : 168.947447
 N41     -Co62    -N55     -C56     : -17.709285
 N41     -Co62    -O92     -O91     :-147.768711
 C42     -C38     -C39     -C64     : 171.342502
 C42     -N41     -C40     -C59     : 175.174620
 C42     -N41     -Co62    -N45     :   3.020144
 C42     -N41     -Co62    -N49     : -84.385942
 C42     -N41     -Co62    -N55     :-169.995261
 C42     -N41     -Co62    -O92     :  98.722908
 C42     -C43     -C44     -N45     :   3.085720
 C42     -C43     -C44     -C48     :-173.273906
 C43     -C42     -C38     -H63     :   5.293487
 C43     -C42     -N41     -Co62    :   1.890324
 C43     -C44     -N45     -C46     :-176.545100
 C43     -C44     -N45     -Co62    :   3.755592
 C43     -C44     -C48     -C47     : 175.660905
 C43     -C44     -C48     -H67     :  -3.898084
 C44     -N45     -C46     -C47     :   0.741803
 C44     -N45     -C46     -C60     :-175.651948
 C44     -N45     -Co62    -N49     : 167.476726
 C44     -N45     -Co62    -N55     :  80.805312
 C44     -N45     -Co62    -O92     : -94.052588
 C44     -C48     -C47     -C46     :   1.546696
 C44     -C48     -C47     -H66     :-179.710620
 N45     -C44     -C43     -H65     : 176.818586
 N45     -C44     -C48     -C47     :  -1.168308
 N45     -C44     -C48     -H67     : 179.272703
 N45     -C46     -C47     -C48     :  -1.486703
 N45     -C46     -C47     -H66     : 179.699766
 N45     -C46     -C60     -C61     :   6.762453
 N45     -C46     -C60     -H74     :-176.428634
 N45     -Co62    -N49     -C50     :-169.837886
 N45     -Co62    -N49     -C61     :  15.455971
 N45     -Co62    -N55     -C54     :  82.390267
 N45     -Co62    -N55     -C56     :-104.266465
 N45     -Co62    -O92     -O91     : -57.398150
 C46     -N45     -C44     -C48     :   0.239361
 C46     -N45     -Co62    -N49     : -12.158773
 C46     -N45     -Co62    -N55     : -98.830187
 C46     -N45     -Co62    -O92     :  86.311913
 C46     -C47     -C48     -H67     :-178.919190
 C46     -C60     -C61     -N49     :  -3.163930
 C46     -C60     -C61     -C52     : 170.525598
 C47     -C46     -N45     -Co62    :-179.559754
 C47     -C46     -C60     -C61     :-169.166788
 C47     -C46     -C60     -H74     :   7.642125
 C48     -C44     -C43     -H65     :   0.458960
 C48     -C44     -N45     -Co62    :-179.459947
 C48     -C47     -C46     -C60     : 174.976682
 N49     -C50     -C51     -C52     :   1.538471
 N49     -C50     -C51     -H68     : 179.555515
 N49     -C50     -C53     -C54     :  -4.937792
 N49     -C50     -C53     -H70     : 179.589398
 N49     -C61     -C52     -C51     :   1.939868
 N49     -C61     -C52     -C69     :-172.704394
 N49     -C61     -C60     -H74     :-179.944319
 N49     -Co62    -N55     -C54     :  -4.203787
 N49     -Co62    -N55     -C56     : 169.139481
 N49     -Co62    -O92     -O91     :  32.607057
 C50     -N49     -C61     -C52     :  -0.982039
 C50     -N49     -C61     -C60     : 173.474281
 C50     -N49     -Co62    -N55     :   3.176800
 C50     -N49     -Co62    -O92     :  94.508303
 C50     -C51     -C52     -C61     :  -2.027611
 C50     -C51     -C52     -C69     : 172.559982
 C50     -C53     -C54     -N55     :   3.809251
 C50     -C53     -C54     -C58     :-168.937236
 C51     -C50     -N49     -C61     :  -0.305174
 C51     -C50     -N49     -Co62    :-175.940765
 C51     -C50     -C53     -C54     : 171.042740
 C51     -C50     -C53     -H70     :  -4.430071
 C51     -C52     -C61     -C60     :-172.528224
 C51     -C52     -C69     -N78     : -97.543130
 C51     -C52     -C69     -H89     :  23.904569
 C51     -C52     -C69     -H90     : 143.944652
 C52     -C51     -C50     -C53     :-174.986118
 C52     -C61     -N49     -Co62    : 174.602505
 C52     -C61     -C60     -H74     :  -6.254790
 C52     -C69     -N78     -C77     :-105.110277
 C52     -C69     -N78     -H86     :  49.427418
 C53     -C50     -N49     -C61     : 176.135893
 C53     -C50     -N49     -Co62    :   0.500302
 C53     -C50     -C51     -H68     :   3.030926
 C53     -C54     -N55     -C56     :-172.790224
 C53     -C54     -N55     -Co62    :   1.630846
 C53     -C54     -C58     -C57     : 172.093471
 C53     -C54     -C58     -H72     :  -5.064640
 C54     -N55     -C56     -C57     :   0.194579
 C54     -N55     -C56     -C59     :-177.005448
 C54     -N55     -Co62    -O92     :-102.727428
 C54     -C58     -C57     -C56     :   1.600487
 C54     -C58     -C57     -H71     :-179.155168
 N55     -C54     -C53     -H70     : 179.277299
 N55     -C54     -C58     -C57     :  -1.571600
 N55     -C54     -C58     -H72     :-178.729711
 N55     -C56     -C57     -C58     :  -1.178784
 N55     -C56     -C57     -H71     : 179.534318
 N55     -C56     -C59     -H73     :-176.843653
 N55     -Co62    -N49     -C61     :-171.529344
 N55     -Co62    -O92     -O91     : 123.227567
 C56     -N55     -C54     -C58     :   0.821307
 C56     -N55     -Co62    -O92     :  70.615839
 C56     -C57     -C58     -H72     : 178.605183
 C57     -C56     -N55     -Co62    :-174.318874
 C57     -C56     -C59     -H73     :   6.323096
 C58     -C54     -C53     -H70     :   6.530812
 C58     -C54     -N55     -Co62    : 175.242377
 C58     -C57     -C56     -C59     : 176.079630
 C59     -C40     -C39     -C64     :  12.458301
 C59     -C40     -N41     -Co62    : -13.231034
 C59     -C56     -N55     -Co62    :   8.481099
 C59     -C56     -C57     -H71     :  -3.207269
 C60     -C46     -N45     -Co62    :   4.046494
 C60     -C46     -C47     -H66     :  -3.836849
 C60     -C61     -N49     -Co62    : -10.941174
 C60     -C61     -C52     -C69     :  12.827513
 C61     -N49     -Co62    -O92     : -80.197841
 C61     -C52     -C51     -H68     :-179.954880
 C61     -C52     -C69     -N78     :  75.982433
 C61     -C52     -C69     -H89     :-162.569868
 C61     -C52     -C69     -H90     : -42.529785
 H63     -C38     -C39     -C64     :  -6.379807
 C64     -N76     -C75     -O80     : -14.637356
 H66     -C47     -C48     -H67     :  -0.176506
 H68     -C51     -C52     -C69     :  -5.367287
 C69     -N78     -C77     -O79     : -14.274842
 H71     -C57     -C58     -H72     :  -2.150472
 C75     -N76     -C64     -H87     : 134.370704
 C75     -N76     -C64     -H88     :  18.197399
 N76     -C75     -C26     -H81     : 145.814513
 N76     -C75     -C26     -H82     :  28.313372
 C77     -N78     -C69     -H89     : 133.429035
 C77     -N78     -C69     -H90     :  17.404154
 N78     -C77     -C31     -H83     : 146.739572
 N78     -C77     -C31     -H84     :  28.854090
 O79     -C77     -C31     -H83     : -35.427472
 O79     -C77     -C31     -H84     :-153.312954
 O79     -C77     -N78     -H86     :-168.347944
 O80     -C75     -C26     -H81     : -35.697180
 O80     -C75     -C26     -H82     :-153.198320
 O80     -C75     -N76     -H85     :-168.112066
 H85     -N76     -C64     -H87     : -71.698902
 H85     -N76     -C64     -H88     : 172.127793
 H86     -N78     -C69     -H89     : -72.033270
 H86     -N78     -C69     -H90     : 171.941849
 
  nuclear repulsion energy.......   10739.202134704 hartrees
 
 Non-default options chosen:
   SCF calculation type: DFT             
   DFT=Becke_3_Parameter/HF+Slater+Becke88+VWN+LYP (B3LYP)
   Geometry will be optimized in redundant internal coordinates
   HF Initial guess: read from Jaguar .in file
   Level shift virtual orbitals by  1.000
   highest accuracy cutoffs used in SCF
   Initial Hessian: read from Jaguar .in file in cartesian coordinates
   J and K strips stored in core if nfb*nham < 1500
  
 Non-default print settings:
     11= 2
  
 Temporary integer options set:
     21=-1
  
  end of program pre
   
   
  start of program onee
  smallest eigenvalue of S:    3.506E-04
  number of canonical orbitals.....   1030
  end of program onee
   
   
  start of program hfig
  initial wavefunction read from .in file
  reading wavefunction from input file
   231  orbitals read from .in file
  virtual orbitals input are ignored
  Largest Normalization error   3.730241063140769E-011
  RMS Normalization error   1.580378398150558E-012
 
  Irreducible     Total no   No of occupied orbitals 
  representation  orbitals   Shell_1  Shell_2    ...
  No Symm         1030        221
  ------------------------
  Orbital occupation/shell    1.000
 
  end of program hfig
   
   
  start of program probe
  end of program probe
   
   
  start of program grid
   
  number of gridpoints: 
     atom         C1        C2        C3        N4        C5        C6        C7        N8
  grid # 1        92        85        84       100        85        84        84       100
  grid # 2       100        93        97       105        98        94        95       106
  grid # 3       196       185       195       227       195       183       195       227
  grid # 4       362       320       356       420       358       330       360       418
  grid # 5      4324      4324      4324      4324      4324      4324      4324      4324
  grid # 6      1192      1192      1192      1192      1192      1192      1192      1192
  grid # 7      5288      5288      5288      5288      5288      5288      5288      5288
  grid # 8      7728      7728      7728      7826      7728      7728      7728      7826
  grid # 9       756       756       756       778       756       756       756       778
   
  number of gridpoints: 
     atom         C9       C10       C11       N12       C13       C14       C15       C16
  grid # 1        84        86        85       100        86        92        85        84
  grid # 2        98        93        93       105        96       100        93        94
  grid # 3       195       184       184       225       196       196       185       183
  grid # 4       358       322       322       417       362       363       319       329
  grid # 5      4324      4324      4324      4324      4324      4324      4324      4324
  grid # 6      1192      1192      1192      1192      1192      1192      1192      1192
  grid # 7      5288      5288      5288      5288      5288      5288      5288      5288
  grid # 8      7728      7728      7728      7826      7728      7728      7728      7728
  grid # 9       756       756       756       778       756       756       756       756
   
  number of gridpoints: 
     atom        C17       N18       C19       C20       C21       C22       C23       C24
  grid # 1        85       100        84        86        86        84        84        84
  grid # 2        95       107        96        93        93        96        96        95
  grid # 3       196       227       194       184       184       182       182       195
  grid # 4       361       420       361       321       322       330       330       359
  grid # 5      4324      4324      4324      4324      4324      4324      4324      4324
  grid # 6      1192      1192      1192      1192      1192      1192      1192      1192
  grid # 7      5288      5288      5288      5288      5288      5288      5288      5288
  grid # 8      7728      7826      7728      7728      7728      7728      7728      7728
  grid # 9       756       778       756       756       756       756       756       756
   
  number of gridpoints: 
     atom       Co25       C26       H27       H28       H29       H30       C31       H32
  grid # 1        76        84        73        69        73        73        84        73
  grid # 2       345        93       117       110       118       118        93       117
  grid # 3       153       168       218       201       220       220       166       218
  grid # 4       274       276       460       435       466       466       277       460
  grid # 5      4324      4324      4324      4324      4324      4324      4324      4324
  grid # 6      1192      1192      1192      1192      1192      1192      1192      1192
  grid # 7      8150      5288      5288      5288      5288      5288      5288      5288
  grid # 8     16724      7728      6084      6084      6084      6084      7728      6084
  grid # 9      1080       756       796       796       796       796       756       796
   
  number of gridpoints: 
     atom        H33       H34       H35       H36       H37       C38       C39       C40
  grid # 1        69        73        73        73        73        85        92        85
  grid # 2       110       118       118       117       117        93       100        95
  grid # 3       200       220       220       213       214       185       195       196
  grid # 4       435       466       466       452       452       322       362       361
  grid # 5      4324      4324      4324      4324      4324      4324      4324      4324
  grid # 6      1192      1192      1192      1192      1192      1192      1192      1192
  grid # 7      5288      5288      5288      5288      5288      5288      5288      5288
  grid # 8      6084      6084      6084      6084      6084      7728      7728      7728
  grid # 9       796       796       796       796       796       756       756       756
   
  number of gridpoints: 
     atom        N41       C42       C43       C44       N45       C46       C47       C48
  grid # 1       100        86        84        84       100        85        85        85
  grid # 2       105        95        94        99       106        96        93        93
  grid # 3       226       194       182       195       227       196       184       184
  grid # 4       414       364       333       360       417       360       321       322
  grid # 5      4324      4324      4324      4324      4324      4324      4324      4324
  grid # 6      1192      1192      1192      1192      1192      1192      1192      1192
  grid # 7      5288      5288      5288      5288      5288      5288      5288      5288
  grid # 8      7826      7728      7728      7728      7826      7728      7728      7728
  grid # 9       778       756       756       756       778       756       756       756
   
  number of gridpoints: 
     atom        N49       C50       C51       C52       C53       C54       N55       C56
  grid # 1       100        84        85        92        84        85       100        87
  grid # 2       105        98        93       100        94        95       105        95
  grid # 3       227       196       184       196       182       194       226       196
  grid # 4       416       360       323       360       333       364       411       360
  grid # 5      4324      4324      4324      4324      4324      4324      4324      4324
  grid # 6      1192      1192      1192      1192      1192      1192      1192      1192
  grid # 7      5288      5288      5288      5288      5288      5288      5288      5288
  grid # 8      7826      7728      7728      7728      7728      7728      7826      7728
  grid # 9       778       756       756       756       756       756       778       756
   
  number of gridpoints: 
     atom        C57       C58       C59       C60       C61      Co62       H63       C64
  grid # 1        85        85        85        85        86        74        73        83
  grid # 2        93        93        95        95        98       344       117        91
  grid # 3       184       184       183       183       196       153       217       162
  grid # 4       321       322       331       330       359       276       459       266
  grid # 5      4324      4324      4324      4324      4324      4324      4324      4324
  grid # 6      1192      1192      1192      1192      1192      1192      1192      1192
  grid # 7      5288      5288      5288      5288      5288      8150      5288      5288
  grid # 8      7728      7728      7728      7728      7728     16724      6084      7728
  grid # 9       756       756       756       756       756      1080       796       756
   
  number of gridpoints: 
     atom        H65       H66       H67       H68       C69       H70       H71       H72
  grid # 1        73        73        73        73        83        73        73        73
  grid # 2       115       117       118       117        91       117       117       118
  grid # 3       213       220       220       217       162       213       220       220
  grid # 4       452       466       466       459       266       452       466       466
  grid # 5      4324      4324      4324      4324      4324      4324      4324      4324
  grid # 6      1192      1192      1192      1192      1192      1192      1192      1192
  grid # 7      5288      5288      5288      5288      5288      5288      5288      5288
  grid # 8      6084      6084      6084      6084      7728      6084      6084      6084
  grid # 9       796       796       796       796       756       796       796       796
   
  number of gridpoints: 
     atom        H73       H74       C75       N76       C77       N78       O79       O80
  grid # 1        68        68        84        97        84        97       109       109
  grid # 2       109       109        93       105        93       105       120       120
  grid # 3       201       201       177       206       177       206       258       259
  grid # 4       430       432       337       352       339       353       490       491
  grid # 5      4324      4324      4324      4324      4324      4324      4324      4324
  grid # 6      1192      1192      1192      1192      1192      1192      1192      1192
  grid # 7      5288      5288      5288      5288      5288      5288      5288      5288
  grid # 8      6084      6084      7728      7826      7728      7826     10988     10988
  grid # 9       796       796       756       778       756       778       774       774
   
  number of gridpoints: 
     atom        H81       H82       H83       H84       H85       H86       H87       H88
  grid # 1        69        68        69        68        68        68        70        68
  grid # 2       110       108       110       108       111       111       110       107
  grid # 3       219       208       219       208       195       195       218       207
  grid # 4       457       444       458       444       424       427       460       443
  grid # 5      4324      4324      4324      4324      4324      4324      4324      4324
  grid # 6      1192      1192      1192      1192      1192      1192      1192      1192
  grid # 7      5288      5288      5288      5288      5288      5288      5288      5288
  grid # 8      6084      6084      6084      6084      6084      6084      6084      6084
  grid # 9       796       796       796       796       796       796       796       796
   
  number of gridpoints: 
     atom        H89       H90       O91       O92     total
  grid # 1        70        68       102       104      7621
  grid # 2       110       107       112       112      9982
  grid # 3       218       207       227       226     18470
  grid # 4       460       443       425       427     35461
  grid # 5      4324      4324      4324      4324    397808
  grid # 6      1192      1192      1192      1192    109664
  grid # 7      5288      5288      5288      5288    492220
  grid # 8      6084      6084     10988     10988    693668
  grid # 9       796       796       774       774     71692
   
  end of program grid
   
   
  start of program rwr
 Will use SVD to solve RwR matrix  3 for grid 2
 for energies; inverse condition number = 3.3E-15
 Will use SVD to solve RwR matrix  4 for grid 2
 for energies; inverse condition number = 4.8E-16
 Will use SVD to solve RwR matrix  5 for grid 2
 for energies; inverse condition number = 4.8E-15
 Will use SVD to solve RwR matrix  7 for grid 2
 for energies; inverse condition number = 3.4E-15
 Will use SVD to solve RwR matrix  8 for grid 2
 for energies; inverse condition number = 2.3E-16
 Will use SVD to solve RwR matrix  9 for grid 2
 for energies; inverse condition number = 3.6E-15
 Will use SVD to solve RwR matrix 12 for grid 2
 for energies; inverse condition number = 4.2E-16
 Will use SVD to solve RwR matrix 13 for grid 2
 for energies; inverse condition number = 5.3E-15
 Will use SVD to solve RwR matrix 17 for grid 2
 for energies; inverse condition number = 4.3E-15
 Will use SVD to solve RwR matrix 18 for grid 2
 for energies; inverse condition number = 6.6E-16
 Will use SVD to solve RwR matrix 19 for grid 2
 for energies; inverse condition number = 2.9E-15
 Will use SVD to solve RwR matrix 24 for grid 2
 for energies; inverse condition number = 3.6E-15
 Will use SVD to solve RwR matrix 25 for grid 2
 for energies; inverse condition number = 3.7E-15
 Will use SVD to solve RwR matrix 40 for grid 2
 for energies; inverse condition number = 6.2E-15
 Will use SVD to solve RwR matrix 41 for grid 2
 for energies; inverse condition number = 6.6E-16
 Will use SVD to solve RwR matrix 42 for grid 2
 for energies; inverse condition number = 3.8E-15
 Will use SVD to solve RwR matrix 44 for grid 2
 for energies; inverse condition number = 3.5E-15
 Will use SVD to solve RwR matrix 45 for grid 2
 for energies; inverse condition number = 1.0E-15
 Will use SVD to solve RwR matrix 46 for grid 2
 for energies; inverse condition number = 6.4E-15
 Will use SVD to solve RwR matrix 49 for grid 2
 for energies; inverse condition number = 7.9E-16
 Will use SVD to solve RwR matrix 50 for grid 2
 for energies; inverse condition number = 3.1E-15
 Will use SVD to solve RwR matrix 54 for grid 2
 for energies; inverse condition number = 4.2E-15
 Will use SVD to solve RwR matrix 55 for grid 2
 for energies; inverse condition number = 1.0E-15
 Will use SVD to solve RwR matrix 56 for grid 2
 for energies; inverse condition number = 6.8E-15
 Will use SVD to solve RwR matrix 61 for grid 2
 for energies; inverse condition number = 7.4E-15
 Will use SVD to solve RwR matrix 62 for grid 2
 for energies; inverse condition number = 6.4E-15
 Will use SVD to solve RwR matrix 91 for grid 2
 for energies; inverse condition number = 9.3E-17
 Will use SVD to solve RwR matrix 92 for grid 2
 for energies; inverse condition number = 8.1E-17
 spptrf failed in rinv with info = 189
 switching to SVD for RwR matrix   4 for grid  4
 spptrf failed in rinv with info = 254
 switching to SVD for RwR matrix   8 for grid  4
 spptrf failed in rinv with info = 254
 switching to SVD for RwR matrix  12 for grid  4
 spptrf failed in rinv with info = 259
 switching to SVD for RwR matrix  18 for grid  4
 spptrf failed in rinv with info = 358
 switching to SVD for RwR matrix  25 for grid  4
 spptrf failed in rinv with info = 226
 switching to SVD for RwR matrix  41 for grid  4
 spptrf failed in rinv with info = 144
 switching to SVD for RwR matrix  45 for grid  4
 spptrf failed in rinv with info = 200
 switching to SVD for RwR matrix  49 for grid  4
 spptrf failed in rinv with info = 147
 switching to SVD for RwR matrix  55 for grid  4
 spptrf failed in rinv with info = 135
 switching to SVD for RwR matrix  91 for grid  4
 spptrf failed in rinv with info =  79
 switching to SVD for RwR matrix  92 for grid  4
  end of program rwr
   
   
  start of program scf 
 number of electrons..........        442
 number of alpha electrons....        221
 number of beta electrons.....        221
 number of orbitals, total....       1030
 number of core orbitals......        221
 number of open shell orbs....          0
 number of occupied orbitals..        221
 number of virtual orbitals...        809
 number of hamiltonians.......          1
 number of shells.............          1
 SCF type: DFT=Becke_3_Parameter/HF+Slater+Becke88+VWN+LYP (B3LYP)
  
       i  u  d  i  g                   
       t  p  i  c  r                                 RMS    maximum
       e  d  i  u  i                       energy  density   DIIS  
       r  t  s  t  d       total energy    change  change    error 
  
etot   1  N  N  1  U   -2909.15986963526           3.8E-05  1.6E-03
etot   2  N  Y  1  U   -2909.15966906351 -2.0E-04  1.3E-05  3.1E-03
etot   3  N  Y  1  U   -2909.15992209585  2.5E-04  7.7E-06  1.8E-03
etot   4  N  Y  1  U   -2909.16004385193  1.2E-04  6.3E-06  1.1E-03
etot   5  N  Y  1  U   -2909.16010370250  6.0E-05  4.9E-06  5.4E-04
etot   6  N  N  1  U   -2909.16012891735  2.5E-05  0.0E+00  0.0E+00
  
  
 Energy components, in hartrees:
   (A)  Nuclear repulsion............   10739.20213470381
   (E)  Total one-electron terms.....  -25485.47151253264
   (I)  Total two-electron terms.....   11837.10924891148
   (J)    Coulomb....................   12232.29524247219
   (K)    Exchange+Correlation.......    -395.18599356071
   (L)  Electronic energy............  -13648.36226362116  (E+I)
   (N)  Total energy.................   -2909.16012891735  (A+L)
  
 SCFE: SCF energy: DFT(b3lyp)     -2909.16012891735 hartrees   iterations:   6
  
 
 HOMO energy:    -0.16109
 LUMO energy:    -0.10240
 
  Orbital energies: 
  -19.41214  -19.40743  -19.11419  -19.11387  -14.36171  -14.36107
  -14.34142  -14.33993  -14.33980  -14.33825  -14.33650  -14.33629
  -14.33617  -14.33333  -10.28861  -10.28858  -10.22685  -10.22623
  -10.21941  -10.21898  -10.21882  -10.21819  -10.21708  -10.21680
  -10.21617  -10.21557  -10.21485  -10.21462  -10.21431  -10.21326
  -10.21323  -10.21274  -10.21244  -10.21063  -10.20273  -10.20246
  -10.19560  -10.19528  -10.19506  -10.19471  -10.19108  -10.19104
  -10.19080  -10.19061  -10.18888  -10.18872  -10.18659  -10.18645
  -10.18588  -10.18560  -10.18486  -10.18413  -10.18412  -10.18394
  -10.18125  -10.18097  -10.18058  -10.18032  -10.18006  -10.17922
   -3.73116   -3.72731   -2.43245   -2.42966   -2.42900   -2.42409
   -2.40557   -2.40298   -1.76447   -1.03507   -1.03493   -0.96702
   -0.96377   -0.95729   -0.95683   -0.95522   -0.95214   -0.94683
   -0.94370   -0.92697   -0.92566   -0.83776   -0.82252   -0.81542
   -0.80958   -0.80397   -0.80364   -0.79398   -0.79271   -0.79147
   -0.78690   -0.78582   -0.78531   -0.77943   -0.77049   -0.76922
   -0.76394   -0.76240   -0.74418   -0.73755   -0.73577   -0.73015
   -0.71915   -0.70777   -0.70558   -0.69335   -0.68111   -0.65607
   -0.65046   -0.64962   -0.64228   -0.59550   -0.58977   -0.58954
   -0.58465   -0.57927   -0.57538   -0.57324   -0.57199   -0.56996
   -0.56624   -0.56435   -0.56206   -0.54635   -0.54363   -0.54151
   -0.53238   -0.53011   -0.52391   -0.51752   -0.51514   -0.51287
   -0.50366   -0.49896   -0.49709   -0.49319   -0.49208   -0.48665
   -0.48051   -0.47424   -0.47083   -0.45933   -0.45416   -0.45292
   -0.44103   -0.43679   -0.43561   -0.43230   -0.43174   -0.42691
   -0.42633   -0.42315   -0.42159   -0.41639   -0.41605   -0.41542
   -0.41231   -0.41136   -0.41057   -0.40641   -0.40559   -0.40382
   -0.39948   -0.39919   -0.39889   -0.39438   -0.39332   -0.39022
   -0.38942   -0.38724   -0.38586   -0.38489   -0.38281   -0.38179
   -0.38124   -0.37789   -0.37416   -0.37250   -0.36975   -0.36864
   -0.36811   -0.36425   -0.36169   -0.35425   -0.35111   -0.33394
   -0.33058   -0.32695   -0.32067   -0.32014   -0.31495   -0.31407
   -0.31229   -0.28664   -0.28371   -0.28231   -0.27807   -0.27728
   -0.27651   -0.27512   -0.27277   -0.27072   -0.26952   -0.26691
   -0.26451   -0.25808   -0.25550   -0.25381   -0.25169   -0.25020
   -0.24351   -0.23671   -0.22416   -0.21966   -0.21725   -0.21324
   -0.19886   -0.19441   -0.19211   -0.18949   -0.16109   -0.10240
   -0.08290   -0.07976   -0.07695   -0.07547   -0.06931   -0.02697
   -0.02477   -0.01935   -0.01785
 
  end of program scf 
   
   
  start of program der1a
  end of program der1a
   
   
  start of program rwr
 Will use SVD to solve RwR matrix  3 for grid 4
 for gradients; inverse condition number = 2.5E-15
 spptrf failed in rinv with info = 226
 switching to SVD for RwR matrix   4 for grid  4
 Will use SVD to solve RwR matrix  5 for grid 4
 for gradients; inverse condition number = 6.3E-15
 Will use SVD to solve RwR matrix  7 for grid 4
 for gradients; inverse condition number = 1.7E-15
 spptrf failed in rinv with info = 202
 switching to SVD for RwR matrix   8 for grid  4
 Will use SVD to solve RwR matrix  9 for grid 4
 for gradients; inverse condition number = 2.0E-15
 spptrf failed in rinv with info = 222
 switching to SVD for RwR matrix  12 for grid  4
 Will use SVD to solve RwR matrix 13 for grid 4
 for gradients; inverse condition number = 7.2E-15
 Will use SVD to solve RwR matrix 17 for grid 4
 for gradients; inverse condition number = 1.8E-15
 spptrf failed in rinv with info = 302
 switching to SVD for RwR matrix  18 for grid  4
 Will use SVD to solve RwR matrix 19 for grid 4
 for gradients; inverse condition number = 1.8E-15
 Will use SVD to solve RwR matrix 24 for grid 4
 for gradients; inverse condition number = 3.1E-15
 spptrf failed in rinv with info = 380
 switching to SVD for RwR matrix  25 for grid  4
 spptrf failed in rinv with info = 151
 switching to SVD for RwR matrix  36 for grid  4
 Will use SVD to solve RwR matrix 40 for grid 4
 for gradients; inverse condition number = 2.6E-15
 spptrf failed in rinv with info = 269
 switching to SVD for RwR matrix  41 for grid  4
 Will use SVD to solve RwR matrix 42 for grid 4
 for gradients; inverse condition number = 2.6E-15
 Will use SVD to solve RwR matrix 44 for grid 4
 for gradients; inverse condition number = 1.9E-15
 spptrf failed in rinv with info = 168
 switching to SVD for RwR matrix  45 for grid  4
 Will use SVD to solve RwR matrix 46 for grid 4
 for gradients; inverse condition number = 2.3E-15
 spptrf failed in rinv with info = 238
 switching to SVD for RwR matrix  49 for grid  4
 Will use SVD to solve RwR matrix 50 for grid 4
 for gradients; inverse condition number = 1.8E-15
 Will use SVD to solve RwR matrix 54 for grid 4
 for gradients; inverse condition number = 2.6E-15
 spptrf failed in rinv with info = 165
 switching to SVD for RwR matrix  55 for grid  4
 Will use SVD to solve RwR matrix 56 for grid 4
 for gradients; inverse condition number = 2.9E-15
 Will use SVD to solve RwR matrix 61 for grid 4
 for gradients; inverse condition number = 2.1E-15
 spptrf failed in rinv with info = 390
 switching to SVD for RwR matrix  62 for grid  4
 spptrf failed in rinv with info = 175
 switching to SVD for RwR matrix  65 for grid  4
 spptrf failed in rinv with info = 164
 switching to SVD for RwR matrix  91 for grid  4
 spptrf failed in rinv with info =  84
 switching to SVD for RwR matrix  92 for grid  4
  end of program rwr
   
   
  start of program der1b
   
  forces (hartrees/bohr) : total     
   
 atom  label           x              y              z
 ---- --------   -------------  -------------  -------------
    1 C1          3.917132E-04   1.723258E-03   2.734821E-04
    2 C2          1.280337E-03   7.730691E-04   2.820981E-04
    3 C3          2.841395E-03  -1.715177E-03   3.029356E-05
    4 N4          1.395717E-03   7.469803E-06  -7.541702E-03
    5 C5          3.105504E-04   2.622024E-03   9.193607E-04
    6 C6          1.191723E-03  -8.354293E-04  -5.179122E-04
    7 C7          2.411585E-04  -2.753886E-03   2.742575E-04
    8 N8         -1.219918E-03  -1.404636E-03   2.017024E-03
    9 C9          2.079598E-03  -9.577384E-04   1.109688E-03
   10 C10         2.982322E-04  -6.874381E-04  -5.208797E-04
   11 C11         9.341191E-04  -5.395989E-04   2.153878E-04
   12 N12         2.012534E-03   7.028793E-04   3.334122E-03
   13 C13        -1.534399E-03  -1.859893E-03  -1.162417E-03
   14 C14        -1.198232E-03   1.358481E-03   1.084705E-03
   15 C15        -1.102075E-03  -1.529753E-03   5.640225E-04
   16 C16        -9.317107E-04   6.844480E-05   4.162013E-04
   17 C17        -9.464750E-04   2.901458E-03  -9.341765E-04
   18 N18        -1.641144E-03   1.617359E-03  -1.262347E-03
   19 C19        -1.583438E-03   2.304248E-03   2.868004E-03
   20 C20         4.312446E-04   1.183052E-03  -8.840485E-04
   21 C21        -3.315855E-04   5.652702E-04   1.557224E-04
   22 C22        -3.602109E-04   1.499318E-03  -3.613306E-04
   23 C23        -9.150158E-04  -1.646590E-03  -9.740513E-04
   24 C24        -2.725681E-03  -3.578895E-04   4.677709E-04
   25 Co25       -1.622954E-03  -2.017504E-02   4.046043E-02
   26 C26         2.540685E-04  -9.206784E-06   1.755409E-03
   27 H27         5.726372E-05   1.305388E-04   1.392302E-04
   28 H28        -2.649815E-04  -1.317424E-04   2.626687E-04
   29 H29         9.533238E-05  -2.719757E-05   1.300767E-04
   30 H30         6.605237E-05  -1.094803E-04  -4.449309E-04
   31 C31         3.701864E-04  -1.084201E-03   3.091222E-04
   32 H32         3.364684E-05  -1.669331E-05   6.879813E-05
   33 H33        -1.642316E-04   7.728451E-05   7.088077E-05
   34 H34        -1.847598E-04   3.774993E-05   2.248921E-04
   35 H35        -3.217553E-05   1.768768E-04   4.044029E-04
   36 H36        -1.949054E-04   1.722944E-04  -2.752027E-04
   37 H37         1.700623E-05   1.085670E-05  -1.663750E-04
   38 C38         3.636391E-04  -1.403943E-04  -1.456813E-03
   39 C39         4.724781E-04   4.896703E-07   2.960868E-04
   40 C40         1.815060E-03   1.007507E-03  -1.115596E-03
   41 N41        -1.953021E-03  -2.613073E-03   1.174083E-03
   42 C42         2.375491E-03  -2.357892E-03   1.085758E-03
   43 C43         1.361694E-03  -4.950553E-04   1.105971E-03
   44 C44        -2.086418E-03  -1.494412E-04  -2.663142E-04
   45 N45         7.903442E-04  -1.478405E-03  -1.600458E-03
   46 C46         1.126787E-03  -1.979358E-03  -4.692715E-04
   47 C47        -5.232396E-04  -9.009756E-04   5.662745E-04
   48 C48        -3.319362E-04  -3.235038E-04   5.546789E-05
   49 N49         1.292054E-03   3.623013E-03   4.780800E-03
   50 C50        -1.842801E-03  -1.629784E-03  -5.332943E-04
   51 C51        -1.115303E-03  -6.527929E-06  -1.676552E-04
   52 C52        -4.162203E-04   3.937397E-04   9.217907E-04
   53 C53        -2.533227E-05   1.349754E-03  -7.277623E-04
   54 C54         8.536530E-04   4.368774E-03   2.327838E-03
   55 N55        -7.199661E-04  -2.129925E-03   1.798366E-03
   56 C56         2.417646E-03   3.613121E-03  -1.558279E-03
   57 C57         1.033351E-03   4.513569E-04   3.209395E-04
   58 C58        -6.043993E-04   7.454788E-04  -9.745192E-05
   59 C59         1.431586E-03   1.547588E-03   1.587492E-04
   60 C60        -1.261322E-03   6.888911E-05   1.712620E-03
   61 C61        -2.960138E-03   1.323483E-03  -1.827857E-03
   62 Co62        4.587757E-03  -1.878490E-02  -3.251910E-02
   63 H63         1.388001E-04  -9.797533E-06  -2.457467E-04
   64 C64        -7.688431E-04  -1.020775E-04  -1.712725E-03
   65 H65        -1.113899E-04   4.141919E-04  -1.082964E-03
   66 H66        -4.909116E-05  -2.377197E-05  -1.117936E-04
   67 H67        -6.634711E-05  -1.740288E-04   2.768957E-04
   68 H68        -2.103099E-04  -1.503577E-04  -2.833315E-04
   69 C69        -2.549306E-05  -4.790637E-04  -2.151160E-03
   70 H70        -3.397177E-05  -2.703228E-05   1.272218E-04
   71 H71         2.502346E-05   1.300866E-04  -1.535751E-04
   72 H72         1.812081E-04   5.454296E-05  -1.147687E-03
   73 H73        -1.948436E-04   3.015391E-04   1.951346E-04
   74 H74        -4.305994E-05   2.034975E-04  -2.144896E-05
   75 C75         1.518434E-03   8.297339E-04   2.442733E-03
   76 N76         1.089148E-03  -4.607042E-04  -1.361956E-03
   77 C77        -1.761562E-03   5.670466E-04   1.688828E-03
   78 N78        -3.237062E-04   4.106936E-04  -9.016818E-04
   79 O79         1.016939E-04  -4.955929E-04  -1.213078E-04
   80 O80        -3.813518E-04  -1.070238E-03  -1.083207E-03
   81 H81         1.056988E-04  -2.438767E-05  -3.045462E-04
   82 H82         8.744760E-05   2.727430E-04   3.482284E-04
   83 H83        -1.259355E-04  -2.659431E-04  -5.407115E-04
   84 H84         1.832255E-06   1.186405E-04  -5.275816E-04
   85 H85         1.032195E-04   5.812719E-04   1.522520E-04
   86 H86         8.952675E-05  -4.437646E-04   4.249167E-04
   87 H87         4.552874E-05  -1.648644E-04   4.764126E-04
   88 H88        -9.649450E-05   1.383081E-04  -6.012689E-04
   89 H89        -1.114526E-04   1.747648E-04   5.802335E-04
   90 H90        -3.165333E-05   2.388326E-04  -3.422364E-04
   91 O91        -1.307037E+00  -2.708409E-01   1.189957E+00
   92 O92         1.304197E+00   3.008885E-01  -1.201842E+00
 -------------   -------------  -------------  -------------
     total       -2.580731E-04  -1.813791E-03  -1.108802E-03
   
  end of program der1b
   
   
  start of program geopt   1
  
  geometry optimization step  1
  energy:           -2909.16012891735 hartrees
  reading input hessian of dimension   276
   in five columns format
  
  
  Level shifts adjusted to satisfy step-size constraints
   Step size:    0.3008897
   Cos(theta):   0.9999129
  
   Final level shift:  -5.8916271E+00
  gradient maximum:        1.7661E+00 .  (  4.5000E-04 )
  gradient rms:            8.9301E-02 .  (  3.0000E-04 )
  step size:   0.30089  trust radius:   0.30000
  displacement maximum:    2.9639E-01 .  (  1.8000E-03 )
  displacement rms:        1.4988E-02 .  (  1.2000E-03 )
  predicted energy change:    -5.3637E-01    geom step:   3.0089E-01    full step:   3.0089E-01
  molecular structure not yet converged...
  
  center of mass moved by:
     x:    -9.3553E-05     y:    -1.0779E-03     z:     5.8557E-04
  
  new geometry: 
                                   angstroms
  atom               x                 y                 z
  C1            4.0796743615      1.0793400778      2.0945085936 
  C2            3.5138712375      2.3172009019      2.1487166244 
  C3            2.0948127451      2.1359657131      2.2687549194 
  N4            1.7743185885      0.7977515184      2.2891459078 
  C5            2.9812961208      0.1359106178      2.2000632460 
  C6            3.1289037222     -1.2367257815      2.2610538465 
  C7            2.0803782306     -2.1359496315      2.3504498759 
  N8            0.7466918070     -1.8102448366      2.3173848057 
  C9            0.0773021166     -3.0107107556      2.4104409514 
  C10           1.0087487273     -4.1043597718      2.5115130265 
  C11           2.2535891405     -3.5610453286      2.4743719817 
  N12          -1.8923192928     -0.8034783482      2.3470018802 
  C13          -3.0894203150     -0.1381434104      2.2974031435 
  C14          -4.1913847964     -1.0785121434      2.1848013147 
  C15          -3.6293959069     -2.3179772469      2.2128858803 
  C16          -3.2268058608      1.2375899580      2.3740611884 
  C17          -2.1766671933      2.1357079736      2.4476672301 
  N18          -0.8414055284      1.8183185626      2.3793571867 
  C19          -0.1790389447      3.0213392434      2.4184436620 
  C20          -1.1131385791      4.1129733161      2.5335973805 
  C21          -2.3549616085      3.5625921250      2.5489073158 
  C22           1.1927555882      3.1797109313      2.3531701515 
  C23          -1.2950203520     -3.1738848561      2.3915294124 
  C24          -2.2081602860     -2.1368250887      2.3207617060 
  Co25         -0.0540012995      0.0008455928      2.2235146577 
  C26           5.5288794170      0.7724184285      1.8291161923 
  H27           4.0126777319      3.2753631043      2.0835723901 
  H28           4.1335302873     -1.6478071082      2.2722855664 
  H29           0.7252094104     -5.1453078550      2.5966208461 
  H30           3.2119870314     -4.0608720135      2.5322055193 
  C31          -5.6306023218     -0.7408216720      1.9116810370 
  H32          -4.1309557391     -3.2738330787      2.1339103711 
  H33          -4.2283520485      1.6540318920      2.4123550000 
  H34          -0.8323938902      5.1570240960      2.5843322940 
  H35          -3.3148768802      4.0590055659      2.6101810511 
  H36           1.5891673418      4.1891321327      2.3661777742 
  H37          -1.6827171679     -4.1869725537      2.4247257176 
  C38           3.7368123005     -2.1064244859     -2.4400437623 
  C39           4.2258235521     -0.8623008309     -2.1688789898 
  C40           3.0788612148      0.0257624663     -2.1691394731 
  N41           1.9240390758     -0.6802643106     -2.3899307188 
  C42           2.3066570401     -1.9865569364     -2.5529349414 
  C43           1.4472481573     -3.0682651964     -2.6723837665 
  C44           0.0741675332     -2.9936956637     -2.5209923999 
  N45          -0.6400645586     -1.8381443285     -2.2941899240 
  C46          -1.9445862249     -2.2398741592     -2.1246125302 
  C47          -2.0490794616     -3.6731615907     -2.2319275784 
  C48          -0.8001091176     -4.1387746649     -2.5005824913 
  N49          -1.7977762997      0.6877006430     -2.2839535522 
  C50          -2.1881765057      1.9955387766     -2.4652064849 
  C51          -3.6157663044      2.1096202318     -2.3501829358 
  C52          -4.1061812728      0.8697168665     -2.0605814747 
  C53          -1.3412143219      3.0754904700     -2.6513094272 
  C54           0.0400202929      3.0074901617     -2.5815372858 
  N55           0.7605286808      1.8574043386     -2.3965995954 
  C56           2.0618663446      2.2512514902     -2.2211767055 
  C57           2.1629005515      3.6889775281     -2.2938063074 
  C58           0.9113242094      4.1577818170     -2.5413287712 
  C59           3.1464964836      1.4047293531     -2.0505709040 
  C60          -3.0304743573     -1.3976619804     -1.9461792461 
  C61          -2.9565892721     -0.0187877593     -2.0512242754 
  Co62          0.0646326255      0.0069295856     -2.2292108946 
  H63           4.2860690304     -3.0368453598     -2.5198701518 
  C64           5.6290280211     -0.4935312085     -1.7788242041 
  H65           1.8881388375     -4.0532470960     -2.7885646610 
  H66          -2.9728531877     -4.2276784953     -2.1303961407 
  H67          -0.4779490153     -5.1594312850     -2.6611355079 
  H68          -4.1675546175      3.0371890730     -2.4459750478 
  C69          -5.5248153699      0.5204115345     -1.7016910127 
  H70          -1.7932838319      4.0527469585     -2.7886820166 
  H71           3.0850913976      4.2436502924     -2.1790349073 
  H72           0.5808229418      5.1836348527     -2.6403714610 
  H73           4.1138176468      1.8587514588     -1.8604835623 
  H74          -3.9983204375     -1.8540574144     -1.7648188046 
  C75           5.7997235064      0.8285373861      0.3149083156 
  N76           5.7379517440     -0.3805392203     -0.3194776389 
  C77          -5.8369678341     -0.7831871595      0.3848951008 
  N78          -5.7083226577      0.4227292459     -0.2481883875 
  O79          -6.0562872976     -1.8324971790     -0.2088885636 
  O80           6.0260647114      1.8863826984     -0.2617398150 
  H81           6.1643131660      1.5335565444      2.2889373236 
  H82           5.8206536505     -0.2010911247      2.2387756196 
  H83          -6.2877434894     -1.4950166853      2.3515116068 
  H84          -5.9097630954      0.2316712722      2.3319674047 
  H85           5.3637769580     -1.1583192086      0.2072882732 
  H86          -5.3509321220      1.1982219480      0.2928163858 
  H87           6.3296145391     -1.2549904412     -2.1388331706 
  H88           5.9438932325      0.4697683859     -2.1856042126 
  H89          -6.2050564902      1.2819925817     -2.0988846670 
  H90          -5.8344864967     -0.4463532536     -2.1056504170 
  O91          -0.4111249263     -0.0997007599      0.3697514756 
  O92           0.3344429047      0.0606625833     -0.3355198631 
   
 
  bond lengths (angstroms):
 
 C1      -C2      :   1.362120      C1      -C5      :   1.451770
 C1      -C26     :   1.504935      C2      -C3      :   1.435612
 C2      -H27     :   1.082186      C3      -N4      :   1.376208
 C3      -C22     :   1.382113      N4      -C5      :   1.379407
 N4      -Co25    :   1.995525      C5      -C6      :   1.381897
 C6      -C7      :   1.384197      C6      -H28     :   1.085536
 C7      -N8      :   1.373279      C7      -C11     :   1.440922
 N8      -C9      :   1.377629      N8      -Co25    :   1.982415
 C9      -C10     :   1.440096      C9      -C23     :   1.382119
 C10     -C11     :   1.358749      C10     -H29     :   1.082225
 C11     -H30     :   1.082450      N12     -C13     :   1.370468
 N12     -C24     :   1.370495      N12     -Co25    :   2.010373
 C13     -C14     :   1.453031      C13     -C16     :   1.384700
 C14     -C15     :   1.361210      C14     -C31     :   1.503322
 C15     -C24     :   1.436789      C15     -H32     :   1.082340
 C16     -C17     :   1.383772      C16     -H33     :   1.085350
 C17     -N18     :   1.374164      C17     -C21     :   1.441540
 N18     -C19     :   1.373869      N18     -Co25    :   1.986832
 C19     -C20     :   1.441342      C19     -C22     :   1.382448
 C20     -C21     :   1.358410      C20     -H34     :   1.082328
 C21     -H35     :   1.082413      C22     -H36     :   1.084547
 C23     -C24     :   1.383592      C23     -H37     :   1.085245
 Co25    -O91     :   1.890525      C26     -C75     :   1.539263
 C26     -H81     :   1.092951      C26     -H82     :   1.095753
 C31     -C77     :   1.541252      C31     -H83     :   1.092747
 C31     -H84     :   1.095588      C38     -C39     :   1.364004
 C38     -C42     :   1.439603      C38     -H63     :   1.083392
 C39     -C40     :   1.450579      C39     -C64     :   1.502370
 C40     -N41     :   1.371436      C40     -C59     :   1.385707
 N41     -C42     :   1.370900      N41     -Co62    :   1.988833
 C42     -C43     :   1.386703      C43     -C44     :   1.383413
 C43     -H65     :   1.085390      C44     -N45     :   1.377267
 C44     -C48     :   1.440827      N45     -C46     :   1.375471
 N45     -Co62    :   1.976137      C46     -C47     :   1.441093
 C46     -C60     :   1.385754      C47     -C48     :   1.359742
 C47     -H66     :   1.082199      C48     -H67     :   1.082268
 N49     -C50     :   1.376846      N49     -C61     :   1.377003
 N49     -Co62    :   1.983687      C50     -C51     :   1.436752
 C50     -C53     :   1.385018      C51     -C52     :   1.364455
 C51     -H68     :   1.083527      C52     -C61     :   1.452959
 C52     -C69     :   1.504440      C53     -C54     :   1.384666
 C53     -H70     :   1.085481      C54     -N55     :   1.369683
 C54     -C58     :   1.443592      N55     -C56     :   1.370901
 N55     -Co62    :   1.984073      C56     -C57     :   1.443101
 C56     -C59     :   1.386409      C57     -C58     :   1.359223
 C57     -H71     :   1.082252      C58     -H72     :   1.082319
 C59     -H73     :   1.085348      C60     -C61     :   1.384842
 C60     -H74     :   1.085318      Co62    -O92     :   1.913570
 C64     -N76     :   1.467762      C64     -H87     :   1.095558
 C64     -H88     :   1.092042      C69     -N78     :   1.468294
 C69     -H89     :   1.095672      C69     -H90     :   1.092572
 C75     -N76     :   1.366795      C75     -O80     :   1.225883
 N76     -H85     :   1.011153      C77     -N78     :   1.368057
 C77     -O79     :   1.225452      N78     -H86     :   1.010843
 O91     -O92     :   1.038747
 
  bond angles:
 
 C5      -C1      -C2      : 105.866755  C26     -C1      -C2      : 126.324570
 C26     -C1      -C5      : 127.506482  C3      -C2      -C1      : 107.409325
 H27     -C2      -C1      : 127.645091  H27     -C2      -C3      : 124.919006
 N4      -C3      -C2      : 110.743978  C22     -C3      -C2      : 123.704550
 C22     -C3      -N4      : 125.551381  C5      -N4      -C3      : 105.178481
 Co25    -N4      -C3      : 126.956096  Co25    -N4      -C5      : 127.441453
 N4      -C5      -C1      : 110.787455  C6      -C5      -C1      : 124.603075
 C6      -C5      -N4      : 124.555101  C7      -C6      -C5      : 124.556641
 H28     -C6      -C5      : 118.389470  H28     -C6      -C7      : 117.023721
 N8      -C7      -C6      : 125.452436  C11     -C7      -C6      : 123.848394
 C11     -C7      -N8      : 110.694274  C9      -N8      -C7      : 105.283306
 Co25    -N8      -C7      : 127.594501  Co25    -N8      -C9      : 127.087684
 C10     -C9      -N8      : 110.623704  C23     -C9      -N8      : 125.761317
 C23     -C9      -C10     : 123.608287  C11     -C10     -C9      : 106.677583
 H29     -C10     -C9      : 124.508190  H29     -C10     -C11     : 128.814062
 C10     -C11     -C7      : 106.719821  H30     -C11     -C7      : 124.590717
 H30     -C11     -C10     : 128.687453  C24     -N12     -C13     : 105.683525
 Co25    -N12     -C13     : 127.033637  Co25    -N12     -C24     : 126.784022
 C14     -C13     -N12     : 110.552492  C16     -C13     -N12     : 124.541203
 C16     -C13     -C14     : 124.892032  C15     -C14     -C13     : 105.937396
 C31     -C14     -C13     : 126.495175  C31     -C14     -C15     : 127.123986
 C24     -C15     -C14     : 107.165616  H32     -C15     -C14     : 127.685389
 H32     -C15     -C24     : 125.114502  C17     -C16     -C13     : 124.923548
 H33     -C16     -C13     : 118.341007  H33     -C16     -C17     : 116.704601
 N18     -C17     -C16     : 125.793110  C21     -C17     -C16     : 123.525674
 C21     -C17     -N18     : 110.627692  C19     -N18     -C17     : 105.355548
 Co25    -N18     -C17     : 126.889409  Co25    -N18     -C19     : 127.746334
 C20     -C19     -N18     : 110.671750  C22     -C19     -N18     : 125.265912
 C22     -C19     -C20     : 124.062050  C21     -C20     -C19     : 106.648119
 H34     -C20     -C19     : 124.487688  H34     -C20     -C21     : 128.861187
 C20     -C21     -C17     : 106.689616  H35     -C21     -C17     : 124.584174
[...]
 C40     -N41     -Co62    -N45     :-166.772047
 C40     -N41     -Co62    -N49     : 107.040218
 C40     -N41     -Co62    -N55     :  19.954039
 C40     -N41     -Co62    -O92     : -70.526133
 C40     -C59     -C56     -N55     :   6.811447
 C40     -C59     -C56     -C57     :-170.482577
 N41     -C40     -C39     -C64     :-171.175923
 N41     -C40     -C59     -C56     :  -4.059124
 N41     -C40     -C59     -H73     : 179.053187
 N41     -C42     -C38     -H63     : 179.308634
 N41     -C42     -C43     -C44     :  -6.196105
 N41     -C42     -C43     -H65     :-179.482495
 N41     -Co62    -N45     -C44     :  -5.820412
 N41     -Co62    -N45     -C46     : 174.265006
 N41     -Co62    -N49     -C50     : -83.628155
 N41     -Co62    -N49     -C61     : 101.681057
 N41     -Co62    -N55     -C54     : 169.333702
 N41     -Co62    -N55     -C56     : -17.356379
 N41     -Co62    -O92     -O91     :-147.757519
 C42     -C38     -C39     -C64     : 170.939370
 C42     -N41     -C40     -C59     : 175.081288
 C42     -N41     -Co62    -N45     :   3.138212
 C42     -N41     -Co62    -N49     : -83.049523
 C42     -N41     -Co62    -N55     :-170.135702
 C42     -N41     -Co62    -O92     :  99.384126
 C42     -C43     -C44     -N45     :   3.188898
 C42     -C43     -C44     -C48     :-172.917993
 C43     -C42     -C38     -H63     :   5.363741
 C43     -C42     -N41     -Co62    :   1.897286
 C43     -C44     -N45     -C46     :-176.229039
 C43     -C44     -N45     -Co62    :   3.841412
 C43     -C44     -C48     -C47     : 175.383833
 C43     -C44     -C48     -H67     :  -3.900135
 C44     -N45     -C46     -C47     :   0.648894
 C44     -N45     -C46     -C60     :-176.134853
 C44     -N45     -Co62    -N49     : 167.972783
 C44     -N45     -Co62    -N55     :  82.027886
 C44     -N45     -Co62    -O92     : -93.441317
 C44     -C48     -C47     -C46     :   1.545367
 C44     -C48     -C47     -H66     :-179.649051
 N45     -C44     -C43     -H65     : 176.481556
 N45     -C44     -C48     -C47     :  -1.225528
 N45     -C44     -C48     -H67     : 179.490504
 N45     -C46     -C47     -C48     :  -1.426983
 N45     -C46     -C47     -H66     : 179.700124
 N45     -C46     -C60     -C61     :   6.822487
 N45     -C46     -C60     -H74     :-176.423239
 N45     -Co62    -N49     -C50     :-169.888629
 N45     -Co62    -N49     -C61     :  15.420584
 N45     -Co62    -N55     -C54     :  81.416034
 N45     -Co62    -N55     -C56     :-105.274047
 N45     -Co62    -O92     -O91     : -57.553645
 C46     -N45     -C44     -C48     :   0.331353
 C46     -N45     -Co62    -N49     : -11.941799
 C46     -N45     -Co62    -N55     : -97.886696
 C46     -N45     -Co62    -O92     :  86.644101
 C46     -C47     -C48     -H67     :-179.210857
 C46     -C60     -C61     -N49     :  -3.038290
 C46     -C60     -C61     -C52     : 170.686791
 C47     -C46     -N45     -Co62    :-179.421759
 C47     -C46     -C60     -C61     :-169.548721
 C47     -C46     -C60     -H74     :   7.205554
 C48     -C44     -C43     -H65     :   0.374665
 C48     -C44     -N45     -Co62    :-179.598196
 C48     -C47     -C46     -C60     : 175.422069
 N49     -C50     -C51     -C52     :   1.599713
 N49     -C50     -C51     -H68     : 179.561823
 N49     -C50     -C53     -C54     :  -5.101599
 N49     -C50     -C53     -H70     : 179.591569
 N49     -C61     -C52     -C51     :   2.098243
 N49     -C61     -C52     -C69     :-172.854640
 N49     -C61     -C60     -H74     :-179.764385
 N49     -Co62    -N55     -C54     :  -4.454329
 N49     -Co62    -N55     -C56     : 168.855590
 N49     -Co62    -O92     -O91     :  32.509094
 C50     -N49     -C61     -C52     :  -1.105184
 C50     -N49     -C61     -C60     : 173.378053
 C50     -N49     -Co62    -N55     :   3.397810
 C50     -N49     -Co62    -O92     :  93.912498
 C50     -C51     -C52     -C61     :  -2.154115
 C50     -C51     -C52     -C69     : 172.808386
 C50     -C53     -C54     -N55     :   3.945601
 C50     -C53     -C54     -C58     :-168.644182
 C51     -C50     -N49     -C61     :  -0.264104
 C51     -C50     -N49     -Co62    :-175.892846
 C51     -C50     -C53     -C54     : 170.746254
 C51     -C50     -C53     -H70     :  -4.560578
 C51     -C52     -C61     -C60     :-172.391559
 C51     -C52     -C69     -N78     : -97.237983
 C51     -C52     -C69     -H89     :  23.893363
 C51     -C52     -C69     -H90     : 143.922151
 C52     -C51     -C50     -C53     :-174.810832
 C52     -C61     -N49     -Co62    : 174.467123
 C52     -C61     -C60     -H74     :  -6.039304
 C52     -C69     -N78     -C77     :-105.323746
 C52     -C69     -N78     -H86     :  49.421808
 C53     -C50     -N49     -C61     : 176.058669
 C53     -C50     -N49     -Co62    :   0.429927
 C53     -C50     -C51     -H68     :   3.151278
 C53     -C54     -N55     -C56     :-172.629946
 C53     -C54     -N55     -Co62    :   1.755440
 C53     -C54     -C58     -C57     : 171.933197
 C53     -C54     -C58     -H72     :  -5.091536
 C54     -N55     -C56     -C57     :   0.169717
 C54     -N55     -C56     -C59     :-177.440266
 C54     -N55     -Co62    -O92     :-103.087831
 C54     -C58     -C57     -C56     :   1.606039
 C54     -C58     -C57     -H71     :-179.136916
 N55     -C54     -C53     -H70     : 179.247674
 N55     -C54     -C58     -C57     :  -1.592332
 N55     -C54     -C58     -H72     :-178.617064
 N55     -C56     -C57     -C58     :  -1.166537
 N55     -C56     -C57     -H71     : 179.534772
 N55     -C56     -C59     -H73     :-176.279606
 N55     -Co62    -N49     -C61     :-171.292977
 N55     -Co62    -O92     -O91     : 122.976819
 C56     -N55     -C54     -C58     :   0.849344
 C56     -N55     -Co62    -O92     :  70.222088
 C56     -C57     -C58     -H72     : 178.470830
 C57     -C56     -N55     -Co62    :-174.319957
 C57     -C56     -C59     -H73     :   6.426370
 C58     -C54     -C53     -H70     :   6.657891
 C58     -C54     -N55     -Co62    : 175.234729
 C58     -C57     -C56     -C59     : 176.490122
 C59     -C40     -C39     -C64     :  12.731030
 C59     -C40     -N41     -Co62    : -13.301598
 C59     -C56     -N55     -Co62    :   8.070061
 C59     -C56     -C57     -H71     :  -2.808568
 C60     -C46     -N45     -Co62    :   3.794494
 C60     -C46     -C47     -H66     :  -3.450824
 C60     -C61     -N49     -Co62    : -11.049640
 C60     -C61     -C52     -C69     :  12.655558
 C61     -N49     -Co62    -O92     : -80.778289
 C61     -C52     -C51     -H68     : 179.972103
 C61     -C52     -C69     -N78     :  76.685573
 C61     -C52     -C69     -H89     :-162.183081
 C61     -C52     -C69     -H90     : -42.154292
 H63     -C38     -C39     -C64     :  -6.634514
 C64     -N76     -C75     -O80     : -14.459647
 H66     -C47     -C48     -H67     :  -0.405275
 H68     -C51     -C52     -C69     :  -5.065397
 C69     -N78     -C77     -O79     : -13.912648
 H71     -C57     -C58     -H72     :  -2.272125
 C75     -N76     -C64     -H87     : 134.685011
 C75     -N76     -C64     -H88     :  18.464847
 N76     -C75     -C26     -H81     : 145.556328
 N76     -C75     -C26     -H82     :  28.500628
 C77     -N78     -C69     -H89     : 133.190557
 C77     -N78     -C69     -H90     :  17.510987
 N78     -C77     -C31     -H83     : 146.926155
 N78     -C77     -C31     -H84     :  28.948944
 O79     -C77     -C31     -H83     : -35.320500
 O79     -C77     -C31     -H84     :-153.297711
 O79     -C77     -N78     -H86     :-168.241213
 O80     -C75     -C26     -H81     : -35.740133
 O80     -C75     -C26     -H82     :-152.795834
 O80     -C75     -N76     -H85     :-167.923275
 H85     -N76     -C64     -H87     : -71.474308
 H85     -N76     -C64     -H88     : 172.305528
 H86     -N78     -C69     -H89     : -72.063889
 H86     -N78     -C69     -H90     : 172.256541
 
  nuclear repulsion energy.......   10693.710094014 hartrees
  -------------------------------------------------
 /  end of geometry optimization iteration   1   /
 -------------------------------------------------
   
  end of program geopt
   
   
  start of program onee
  smallest eigenvalue of S:    3.519E-04
  number of canonical orbitals.....   1030
  end of program onee
   
   
  start of program probe
  end of program probe
   
   
  start of program grid
   
  number of gridpoints: 
     atom         C1        C2        C3        N4        C5        C6        C7        N8
  grid # 1        92        85        84       100        86        85        84       100
  grid # 2       100        93        97       105        97        94        95       106
  grid # 3       196       185       195       227       195       183       195       227
  grid # 4       362       320       357       423       358       329       360       418
  grid # 5      4324      4324      4324      4324      4324      4324      4324      4324
  grid # 6      1192      1192      1192      1192      1192      1192      1192      1192
  grid # 7      5288      5288      5288      5288      5288      5288      5288      5288
  grid # 8      7728      7728      7728      7826      7728      7728      7728      7826
  grid # 9       756       756       756       778       756       756       756       778
   
  number of gridpoints: 
     atom         C9       C10       C11       N12       C13       C14       C15       C16
  grid # 1        84        86        86       100        86        92        85        84
  grid # 2        98        93        93       105        95       100        93        94
  grid # 3       195       184       184       225       196       196       185       183
  grid # 4       358       322       322       416       362       363       319       329
  grid # 5      4324      4324      4324      4324      4324      4324      4324      4324
  grid # 6      1192      1192      1192      1192      1192      1192      1192      1192
  grid # 7      5288      5288      5288      5288      5288      5288      5288      5288
  grid # 8      7728      7728      7728      7826      7728      7728      7728      7728
  grid # 9       756       756       756       778       756       756       756       756
   
  number of gridpoints: 
     atom        C17       N18       C19       C20       C21       C22       C23       C24
  grid # 1        85       100        84        86        86        84        84        84
  grid # 2        95       107        96        93        93        96        96        95
  grid # 3       196       227       194       184       184       182       182       196
  grid # 4       361       419       361       321       321       330       331       359
  grid # 5      4324      4324      4324      4324      4324      4324      4324      4324
  grid # 6      1192      1192      1192      1192      1192      1192      1192      1192
  grid # 7      5288      5288      5288      5288      5288      5288      5288      5288
  grid # 8      7728      7826      7728      7728      7728      7728      7728      7728
  grid # 9       756       778       756       756       756       756       756       756
   
  number of gridpoints: 
     atom       Co25       C26       H27       H28       H29       H30       C31       H32
  grid # 1        76        84        73        69        73        73        84        73
  grid # 2       345        93       117       110       118       118        93       117
  grid # 3       153       169       218       201       220       220       166       218
  grid # 4       276       275       460       435       466       466       277       460
  grid # 5      4324      4324      4324      4324      4324      4324      4324      4324
  grid # 6      1192      1192      1192      1192      1192      1192      1192      1192
  grid # 7      8150      5288      5288      5288      5288      5288      5288      5288
  grid # 8     16724      7728      6084      6084      6084      6084      7728      6084
  grid # 9      1080       756       796       796       796       796       756       796
   
  number of gridpoints: 
     atom        H33       H34       H35       H36       H37       C38       C39       C40
  grid # 1        69        73        73        73        73        85        92        85
  grid # 2       110       118       118       117       117        93       100        95
  grid # 3       200       220       220       213       214       185       195       196
  grid # 4       435       466       466       452       452       322       362       361
  grid # 5      4324      4324      4324      4324      4324      4324      4324      4324
  grid # 6      1192      1192      1192      1192      1192      1192      1192      1192
  grid # 7      5288      5288      5288      5288      5288      5288      5288      5288
  grid # 8      6084      6084      6084      6084      6084      7728      7728      7728
  grid # 9       796       796       796       796       796       756       756       756
   
  number of gridpoints: 
     atom        N41       C42       C43       C44       N45       C46       C47       C48
  grid # 1       100        86        86        84       100        85        85        86
  grid # 2       105        95        94        99       105        96        93        93
  grid # 3       226       194       182       195       227       196       184       184
  grid # 4       414       364       333       360       418       360       321       322
  grid # 5      4324      4324      4324      4324      4324      4324      4324      4324
  grid # 6      1192      1192      1192      1192      1192      1192      1192      1192
  grid # 7      5288      5288      5288      5288      5288      5288      5288      5288
  grid # 8      7826      7728      7728      7728      7826      7728      7728      7728
  grid # 9       778       756       756       756       778       756       756       756
   
  number of gridpoints: 
     atom        N49       C50       C51       C52       C53       C54       N55       C56
  grid # 1       100        84        85        92        84        85       100        87
  grid # 2       105        97        93       100        94        95       105        95
  grid # 3       227       195       185       196       182       194       226       196
  grid # 4       416       360       323       361       333       364       411       361
  grid # 5      4324      4324      4324      4324      4324      4324      4324      4324
  grid # 6      1192      1192      1192      1192      1192      1192      1192      1192
  grid # 7      5288      5288      5288      5288      5288      5288      5288      5288
  grid # 8      7826      7728      7728      7728      7728      7728      7826      7728
  grid # 9       778       756       756       756       756       756       778       756
   
  number of gridpoints: 
     atom        C57       C58       C59       C60       C61      Co62       H63       C64
  grid # 1        85        85        85        85        86        74        73        83
  grid # 2        93        93        95        95        98       344       117        91
  grid # 3       184       184       183       183       195       153       217       162
  grid # 4       321       322       330       330       359       276       459       266
  grid # 5      4324      4324      4324      4324      4324      4324      4324      4324
  grid # 6      1192      1192      1192      1192      1192      1192      1192      1192
  grid # 7      5288      5288      5288      5288      5288      8150      5288      5288
  grid # 8      7728      7728      7728      7728      7728     16724      6084      7728
  grid # 9       756       756       756       756       756      1080       796       756
   
  number of gridpoints: 
     atom        H65       H66       H67       H68       C69       H70       H71       H72
  grid # 1        73        73        73        73        82        73        73        73
  grid # 2       115       117       118       117        91       117       117       118
  grid # 3       213       220       220       217       162       213       220       220
  grid # 4       452       466       466       459       268       452       467       466
  grid # 5      4324      4324      4324      4324      4324      4324      4324      4324
  grid # 6      1192      1192      1192      1192      1192      1192      1192      1192
  grid # 7      5288      5288      5288      5288      5288      5288      5288      5288
  grid # 8      6084      6084      6084      6084      7728      6084      6084      6084
  grid # 9       796       796       796       796       756       796       796       796
   
  number of gridpoints: 
     atom        H73       H74       C75       N76       C77       N78       O79       O80
  grid # 1        68        68        84        97        84        97       109       109
  grid # 2       109       109        93       105        93       105       120       120
  grid # 3       201       203       178       206       177       206       258       259
  grid # 4       430       433       338       351       340       352       490       492
  grid # 5      4324      4324      4324      4324      4324      4324      4324      4324
  grid # 6      1192      1192      1192      1192      1192      1192      1192      1192
  grid # 7      5288      5288      5288      5288      5288      5288      5288      5288
  grid # 8      6084      6084      7728      7826      7728      7826     10988     10988
  grid # 9       796       796       756       778       756       778       774       774
   
  number of gridpoints: 
     atom        H81       H82       H83       H84       H85       H86       H87       H88
  grid # 1        69        68        69        68        68        68        69        68
  grid # 2       110       108       110       108       111       111       110       107
  grid # 3       218       208       219       208       195       195       218       207
  grid # 4       456       443       458       444       425       428       460       443
  grid # 5      4324      4324      4324      4324      4324      4324      4324      4324
  grid # 6      1192      1192      1192      1192      1192      1192      1192      1192
  grid # 7      5288      5288      5288      5288      5288      5288      5288      5288
  grid # 8      6084      6084      6084      6084      6084      6084      6084      6084
  grid # 9       796       796       796       796       796       796       796       796
   
  number of gridpoints: 
     atom        H89       H90       O91       O92     total
  grid # 1        69        68       106       108      7632
  grid # 2       110       107       116       116      9986
  grid # 3       218       207       243       245     18508
  grid # 4       460       442       450       451     35518
  grid # 5      4324      4324      4324      4324    397808
  grid # 6      1192      1192      1192      1192    109664
  grid # 7      5288      5288      5288      5288    492220
  grid # 8      6084      6084     10988     10988    693668
  grid # 9       796       796       774       774     71692
   
  end of program grid
   
   
  start of program rwr
 spptrf failed in rinv with info = 360
 switching to SVD for RwR matrix  62 for grid  4
  end of program rwr
   
   
  start of program scf 
  
       i  u  d  i  g                   
       t  p  i  c  r                                 RMS    maximum
       e  d  i  u  i                       energy  density   DIIS  
       r  t  s  t  d       total energy    change  change    error 
  
etot   1  N  N  1  U   -2909.42656614374           1.2E-04  2.7E-02
etot   2  N  Y  1  U   -2909.45923458760  3.3E-02  1.6E-04  1.4E-02
etot   3  N  Y  1  U   -2909.46369186337  4.5E-03  8.3E-05  1.9E-02
