Job co2ftf4-c2a started on sahp5351.sandia.gov at Thu Jan 29 12:55:25 2004
jobid: sahp5351-0-4019652c

  +--------------------------------------------------------------------+
  |  Jaguar version 5.5, release  11                                   |
  |                                                                    |
  |  Copyright 1991-2003 Schrodinger, LLC.                             |
  |  All Rights Reserved.                                              |
  |                                                                    |
  |  Use of this program should be acknowledged in publications as:    |
  |  Jaguar 5.5, Schrodinger, LLC, Portland, Oregon, 2003.             |
  +--------------------------------------------------------------------+
   
  start of program pre
  Job name: co2ftf4-c2a
  Executables used: /home/rmuller/Programs/schrodinger/jaguar-v55011/bin/Linux-x86
  Temporary files : /tmp/rmuller/co2ftf4-c2a
  Maestro file (input):  co2ftf4-c2a.mae
  Maestro file (output): co2ftf4-c2a.01.mae
  
  Input file comments:
   Geometry symmetrized to C2
  
  basis set:             lacvp**         
  net molecular charge:    0
  multiplicity:            1
  
  This run will use ECP on   2  atoms
  number of basis functions....   1006
  
 Input geometry:
                                   angstroms
  atom               x                 y                 z
  C1            4.1928750506     -0.3335064120      1.9200023179 
  C2            4.0812525912      0.9814996926      1.9344023003 
  C3            2.6943234632      1.2370971825      1.9240173130 
  N4            1.9293255621      0.1469269472      1.9128293266 
  C5            2.8585350535     -0.8076341556      1.9110603288 
  C6            2.5265748858     -2.1634234097      1.9072553334 
  C7            1.2388595277     -2.7020233047      1.9100023301 
  N8            0.1543057632     -1.9314425876      1.9120943275 
  C9           -0.7989070548     -2.8576343895      1.9177923206 
  C10          -0.3332724340     -4.1927873347      1.9197633182 
  C11           0.9803868879     -4.0923102271      1.9158043230 
  N12          -1.9293255621     -0.1469269472      1.9128293266 
  C13          -2.8585350535      0.8076341556      1.9110603288 
  C14          -4.1928750506      0.3335064120      1.9200023179 
  C15          -4.0812525912     -0.9814996926      1.9344023003 
  C16          -2.5265748858      2.1634234097      1.9072553334 
  C17          -1.2388595277      2.7020233047      1.9100023301 
  N18          -0.1543057632      1.9314425876      1.9120943275 
  C19           0.7989070548      2.8576343895      1.9177923206 
  C20           0.3332724340      4.1927873347      1.9197633182 
  C21          -0.9803868879      4.0923102271      1.9158043230 
  C22           2.1536198286      2.5235429253      1.9261723104 
  C23          -2.1536198286     -2.5235429253      1.9261723104 
  C24          -2.6943234632     -1.2370971825      1.9240173130 
  Co25          0.0000000000      0.0000000000      1.9108283291 
  C26           5.4884280599     -1.1176195013      1.9172083213 
  H27           4.8736301153      1.6834103364      1.9433452894 
  H28           3.3227964071     -2.8351209835      1.9089533313 
  H29          -0.8903449266     -5.0926083811      1.9240953129 
  H30           1.6670147406     -4.8977238557      1.9185713196 
  C31          -5.4884280599      1.1176195013      1.9172083213 
  H32          -4.8736301153     -1.6834103364      1.9433452894 
  H33          -3.3227964071      2.8351209835      1.9089533313 
  H34           0.8903449266      5.0926083811      1.9240953129 
  H35          -1.6670147406      4.8977238557      1.9185713196 
  H36           2.8304677763      3.3154833998      1.9352182993 
  H37          -2.8304677763     -3.3154833998      1.9352182993 
  C38           4.2133187981     -0.1718732562     -2.0243988764 
  C39           4.0533921437      1.1672076325     -2.0455038507 
  C40           2.6481213073      1.3466070250     -2.0340378647 
  N41           1.9267133100      0.2207491771     -2.0240928768 
  C42           2.8880117943     -0.6945316276     -2.0206408810 
  C43           2.6081473826     -2.0604637108     -2.0155608872 
  C44           1.3440182682     -2.6482526390     -2.0181598840 
  N45           0.2275082489     -1.9202309460     -2.0224328788 
  C46          -0.6901912936     -2.8869342881     -2.0266768736 
  C47          -0.1668936123     -4.1978720801     -2.0266088737 
  C48           1.1426354172     -4.0464226825     -2.0212318803 
  N49          -1.9267133100     -0.2207491771     -2.0240928768 
  C50          -2.8880117943      0.6945316276     -2.0206408810 
  C51          -4.2133187981      0.1718732562     -2.0243988764 
  C52          -4.0533921437     -1.1672076325     -2.0455038507 
  C53          -2.6081473826      2.0604637108     -2.0155608872 
  C54          -1.3440182682      2.6482526390     -2.0181598840 
  N55          -0.2275082489      1.9202309460     -2.0224328788 
  C56           0.6901912936      2.8869342881     -2.0266768736 
  C57           0.1668936123      4.1978720801     -2.0266088737 
  C58          -1.1426354172      4.0464226825     -2.0212318803 
  C59           2.0543467719      2.6093096035     -2.0340238647 
  C60          -2.0543467719     -2.6093096035     -2.0340238647 
  C61          -2.6481213073     -1.3466070250     -2.0340378647 
  Co62          0.0000000000      0.0000000000     -2.0246768761 
  H63           5.1125598198     -0.7633198441     -2.0369858611 
  C64           5.6229451301      1.0763176443     -1.3996675085 
  H65           3.4317698163     -2.6986832056     -2.0139718891 
  H66          -0.6844172632     -5.1210111119     -2.0296108701 
  H67           1.8616091705     -4.8230237045     -2.0220338793 
  H68          -5.1125598198      0.7633198441     -2.0369858611 
  C69          -5.6229451301     -1.0763176443     -1.3996675085 
  H70          -3.4317698163      2.6986832056     -2.0139718891 
  H71           0.6844172632      5.1210111119     -2.0296108701 
  H72          -1.8616091705      4.8230237045     -2.0220338793 
  H73           2.6994136419      3.4265086849     -2.0384438593 
  H74          -2.6994136419     -3.4265086849     -2.0384438593 
  C75           6.0504588101     -0.8436909378      0.7821617042 
  N76           6.0330681889     -0.3403318656     -0.6297845705 
  C77          -6.0504588101      0.8436909378      0.7821617042 
  N78          -6.0330681889      0.3403318656     -0.6297845705 
  O79          -7.2366646387      0.7542160949      0.7678147217 
  O80           7.2366646387     -0.7542160949      0.7678147217 
  H81           6.0935625909     -0.6895882723      2.5334115705 
  H82           5.2955943971     -2.1695856977      2.2927008638 
  H83          -6.0935625909      0.6895882723      2.5334115705 
  H84          -5.2955943971      2.1695856977      2.2927008638 
  H85           4.9976663275     -0.7813891979     -0.3835148706 
  H86          -4.9976663275      0.7813891979     -0.3835148706 
  H87           6.5749279256      0.7374306545     -2.0311861510 
  H88           5.5604936245      1.9611887108     -1.8611901501 
  H89          -6.5749279256     -0.7374306545     -2.0311861510 
  H90          -5.5604936245     -1.9611887108     -1.8611901501 
   
  principal moments of inertia:
        amu*angstrom^2:     6717.95236    11948.76125    12550.56887
                g*cm^2: 1.11554299E-36 1.98413984E-36 2.08407241E-36
   
  rotational constants:
               cm^(-1):     0.00250934     0.00141083     0.00134318
                   GHz:     0.07522814     0.04229552     0.04026742
   
 
Number of optimization coordinates:   388
Number of independent coordinates:    388
Number of non-redundant coordinates:  264
Number of constrained coordinates:      0
 
Number of geometric degrees of freedom:   264
Maximum geometric degrees of freedom:     264
 " " " " " excluding dummy atoms:         264
 
  Molecular weight:     872.12 amu
  
   
  Stoichiometry: Co2C46N10H30O2
  Molecular Point Group: C2      
	Molecule translated to center of mass 
	Molecule reoriented along symmetry axes
  Point Group used: C2
  
 Symmetrized geometry:
                                   angstroms
  atom               x                 y                 z
  C1            4.1928750506     -0.3335064120      1.9207508169 
  C2            4.0812525912      0.9814996926      1.9351507993 
  C3            2.6943234632      1.2370971825      1.9247658120 
  N4            1.9293255621      0.1469269472      1.9135778256 
  C5            2.8585350535     -0.8076341556      1.9118088278 
  C6            2.5265748858     -2.1634234097      1.9080038324 
  C7            1.2388595277     -2.7020233047      1.9107508290 
  N8            0.1543057632     -1.9314425876      1.9128428265 
  C9           -0.7989070548     -2.8576343895      1.9185408196 
  C10          -0.3332724340     -4.1927873347      1.9205118172 
  C11           0.9803868879     -4.0923102271      1.9165528220 
  N12          -1.9293255621     -0.1469269472      1.9135778256 
  C13          -2.8585350535      0.8076341556      1.9118088278 
  C14          -4.1928750506      0.3335064120      1.9207508169 
  C15          -4.0812525912     -0.9814996926      1.9351507993 
  C16          -2.5265748858      2.1634234097      1.9080038324 
  C17          -1.2388595277      2.7020233047      1.9107508290 
  N18          -0.1543057632      1.9314425876      1.9128428265 
  C19           0.7989070548      2.8576343895      1.9185408196 
  C20           0.3332724340      4.1927873347      1.9205118172 
  C21          -0.9803868879      4.0923102271      1.9165528220 
  C22           2.1536198286      2.5235429253      1.9269208093 
  C23          -2.1536198286     -2.5235429253      1.9269208093 
  C24          -2.6943234632     -1.2370971825      1.9247658120 
  Co25          0.0000000000      0.0000000000      1.9115768280 
  C26           5.4884280599     -1.1176195013      1.9179568203 
  H27           4.8736301153      1.6834103364      1.9440937884 
  H28           3.3227964071     -2.8351209835      1.9097018303 
  H29          -0.8903449266     -5.0926083811      1.9248438119 
  H30           1.6670147406     -4.8977238557      1.9193198186 
  C31          -5.4884280599      1.1176195013      1.9179568203 
  H32          -4.8736301153     -1.6834103364      1.9440937884 
  H33          -3.3227964071      2.8351209835      1.9097018303 
  H34           0.8903449266      5.0926083811      1.9248438119 
  H35          -1.6670147406      4.8977238557      1.9193198186 
  H36           2.8304677763      3.3154833998      1.9359667983 
  H37          -2.8304677763     -3.3154833998      1.9359667983 
  C38           4.2133187981     -0.1718732562     -2.0236503774 
  C39           4.0533921437      1.1672076325     -2.0447553517 
  C40           2.6481213073      1.3466070250     -2.0332893657 
  N41           1.9267133100      0.2207491771     -2.0233443778 
  C42           2.8880117943     -0.6945316276     -2.0198923820 
  C43           2.6081473826     -2.0604637108     -2.0148123882 
  C44           1.3440182682     -2.6482526390     -2.0174113850 
  N45           0.2275082489     -1.9202309460     -2.0216843798 
  C46          -0.6901912936     -2.8869342881     -2.0259283747 
  C47          -0.1668936123     -4.1978720801     -2.0258603747 
  C48           1.1426354172     -4.0464226825     -2.0204833813 
  N49          -1.9267133100     -0.2207491771     -2.0233443778 
  C50          -2.8880117943      0.6945316276     -2.0198923820 
  C51          -4.2133187981      0.1718732562     -2.0236503774 
  C52          -4.0533921437     -1.1672076325     -2.0447553517 
  C53          -2.6081473826      2.0604637108     -2.0148123882 
  C54          -1.3440182682      2.6482526390     -2.0174113850 
  N55          -0.2275082489      1.9202309460     -2.0216843798 
  C56           0.6901912936      2.8869342881     -2.0259283747 
  C57           0.1668936123      4.1978720801     -2.0258603747 
  C58          -1.1426354172      4.0464226825     -2.0204833813 
  C59           2.0543467719      2.6093096035     -2.0332753657 
  C60          -2.0543467719     -2.6093096035     -2.0332753657 
  C61          -2.6481213073     -1.3466070250     -2.0332893657 
  Co62          0.0000000000      0.0000000000     -2.0239283771 
  H63           5.1125598198     -0.7633198441     -2.0362373621 
  C64           5.6229451301      1.0763176443     -1.3989190096 
  H65           3.4317698163     -2.6986832056     -2.0132233901 
  H66          -0.6844172632     -5.1210111119     -2.0288623711 
  H67           1.8616091705     -4.8230237045     -2.0212853803 
  H68          -5.1125598198      0.7633198441     -2.0362373621 
  C69          -5.6229451301     -1.0763176443     -1.3989190096 
  H70          -3.4317698163      2.6986832056     -2.0132233901 
  H71           0.6844172632      5.1210111119     -2.0288623711 
  H72          -1.8616091705      4.8230237045     -2.0212853803 
  H73           2.6994136419      3.4265086849     -2.0376953603 
  H74          -2.6994136419     -3.4265086849     -2.0376953603 
  C75           6.0504588101     -0.8436909378      0.7829102032 
  N76           6.0330681889     -0.3403318656     -0.6290360715 
  C77          -6.0504588101      0.8436909378      0.7829102032 
  N78          -6.0330681889      0.3403318656     -0.6290360715 
  O79          -7.2366646387      0.7542160949      0.7685632206 
  O80           7.2366646387     -0.7542160949      0.7685632206 
  H81           6.0935625909     -0.6895882723      2.5341600695 
  H82           5.2955943971     -2.1695856977      2.2934493628 
  H83          -6.0935625909      0.6895882723      2.5341600695 
  H84          -5.2955943971      2.1695856977      2.2934493628 
  H85           4.9976663275     -0.7813891979     -0.3827663716 
  H86          -4.9976663275      0.7813891979     -0.3827663716 
  H87           6.5749279256      0.7374306545     -2.0304376520 
  H88           5.5604936245      1.9611887108     -1.8604416512 
  H89          -6.5749279256     -0.7374306545     -2.0304376520 
  H90          -5.5604936245     -1.9611887108     -1.8604416512 
   
 
  bond lengths (angstroms):
 
 C1      -C2      :   1.319814      C1      -C5      :   1.416100
 C1      -C26     :   1.514364      C2      -C3      :   1.410323
 C2      -H27     :   1.058594      C3      -N4      :   1.331848
 C3      -C22     :   1.395460      N4      -C5      :   1.332149
 N4      -Co25    :   1.934913      C5      -C6      :   1.395843
 C6      -C7      :   1.395818      C6      -H28     :   1.041705
 C7      -N8      :   1.330434      C7      -C11     :   1.414121
 N8      -C9      :   1.329089      N8      -Co25    :   1.937597
 C9      -C10     :   1.414020      C9      -C23     :   1.395326
 C10     -C11     :   1.317502      C10     -H29     :   1.058313
 C11     -H30     :   1.058374      N12     -C13     :   1.332149
 N12     -C24     :   1.331848      N12     -Co25    :   1.934913
 C13     -C14     :   1.416100      C13     -C16     :   1.395843
 C14     -C15     :   1.319814      C14     -C31     :   1.514364
 C15     -C24     :   1.410323      C15     -H32     :   1.058594
 C16     -C17     :   1.395818      C16     -H33     :   1.041705
 C17     -N18     :   1.330434      C17     -C21     :   1.414121
 N18     -C19     :   1.329089      N18     -Co25    :   1.937597
 C19     -C20     :   1.414020      C19     -C22     :   1.395326
 C20     -C21     :   1.317502      C20     -H34     :   1.058313
 C21     -H35     :   1.058374      C22     -H36     :   1.041813
 C23     -C24     :   1.395460      C23     -H37     :   1.041813
 C26     -C75     :   1.295857      C26     -H81     :   0.963901
 C26     -H82     :   1.133496      C31     -C77     :   1.295857
 C31     -H83     :   0.963901      C31     -H84     :   1.133496
 C38     -C39     :   1.348762      C38     -C42     :   1.424649
 C38     -H63     :   1.076384      C39     -C40     :   1.416722
 C39     -C64     :   1.699665      C40     -N41     :   1.337193
 C40     -C59     :   1.395344      N41     -C42     :   1.327345
 N41     -Co62    :   1.939318      C42     -C43     :   1.394317
 C43     -C44     :   1.394104      C43     -H65     :   1.041960
 C44     -N45     :   1.332902      C44     -C48     :   1.412602
 N45     -C46     :   1.332931      N45     -Co62    :   1.933663
 C46     -C47     :   1.411523      C46     -C60     :   1.392139
 C47     -C48     :   1.318269      C47     -H66     :   1.058313
 C48     -H67     :   1.058316      N49     -C50     :   1.327345
 N49     -C61     :   1.337193      N49     -Co62    :   1.939318
 C50     -C51     :   1.424649      C50     -C53     :   1.394317
 C51     -C52     :   1.348762      C51     -H68     :   1.076384
 C52     -C61     :   1.416722      C52     -C69     :   1.699665
 C53     -C54     :   1.394104      C53     -H70     :   1.041960
 C54     -N55     :   1.332902      C54     -C58     :   1.412602
 N55     -C56     :   1.332931      N55     -Co62    :   1.933663
 C56     -C57     :   1.411523      C56     -C59     :   1.392139
 C57     -C58     :   1.318269      C57     -H71     :   1.058313
 C58     -H72     :   1.058316      C59     -H73     :   1.041127
 C60     -C61     :   1.395344      C60     -H74     :   1.041127
 C64     -N76     :   1.663676      C64     -H87     :   1.191609
 C64     -H88     :   0.999950      C69     -N78     :   1.663676
 C69     -H89     :   1.191609      C69     -H90     :   0.999950
 C75     -N76     :   1.499088      C75     -O80     :   1.189662
 N76     -H85     :   1.152058      C77     -N78     :   1.499088
 C77     -O79     :   1.189662      N78     -H86     :   1.152058
 
  bond angles:
 
 C5      -C1      -C2      : 104.712571  C26     -C1      -C2      : 126.034480
 C26     -C1      -C5      : 129.252835  C3      -C2      -C1      : 105.287605
 H27     -C2      -C1      : 126.686120  H27     -C2      -C3      : 128.024379
 N4      -C3      -C2      : 114.618603  C22     -C3      -C2      : 123.237463
 C22     -C3      -N4      : 122.143917  C5      -N4      -C3      : 100.713058
 Co25    -N4      -C3      : 129.412122  Co25    -N4      -C5      : 129.873866
 N4      -C5      -C1      : 114.666362  C6      -C5      -C1      : 123.319816
 C6      -C5      -N4      : 122.013115  C7      -C6      -C5      : 126.454989
 H28     -C6      -C5      : 116.392766  H28     -C6      -C7      : 117.150894
 N8      -C7      -C6      : 121.908507  C11     -C7      -C6      : 123.229574
 C11     -C7      -N8      : 114.861516  C9      -N8      -C7      : 100.430014
 Co25    -N8      -C7      : 129.961574  Co25    -N8      -C9      : 129.608311
 C10     -C9      -N8      : 114.950178  C23     -C9      -N8      : 121.970955
 C23     -C9      -C10     : 123.078457  C11     -C10     -C9      : 104.852054
 H29     -C10     -C9      : 129.012427  H29     -C10     -C11     : 126.135507
 C10     -C11     -C7      : 104.906166  H30     -C11     -C7      : 129.020326
 H30     -C11     -C10     : 126.073395  C24     -N12     -C13     : 100.713058
 Co25    -N12     -C13     : 129.873866  Co25    -N12     -C24     : 129.412122
 C14     -C13     -N12     : 114.666362  C16     -C13     -N12     : 122.013115
 C16     -C13     -C14     : 123.319816  C15     -C14     -C13     : 104.712571
 C31     -C14     -C13     : 129.252835  C31     -C14     -C15     : 126.034480
 C24     -C15     -C14     : 105.287605  H32     -C15     -C14     : 126.686120
 H32     -C15     -C24     : 128.024379  C17     -C16     -C13     : 126.454989
 H33     -C16     -C13     : 116.392766  H33     -C16     -C17     : 117.150894
 N18     -C17     -C16     : 121.908507  C21     -C17     -C16     : 123.229574
 C21     -C17     -N18     : 114.861516  C19     -N18     -C17     : 100.430014
 Co25    -N18     -C17     : 129.961574  Co25    -N18     -C19     : 129.608311
 C20     -C19     -N18     : 114.950178  C22     -C19     -N18     : 121.970955
 C22     -C19     -C20     : 123.078457  C21     -C20     -C19     : 104.852054
 H34     -C20     -C19     : 129.012427  H34     -C20     -C21     : 126.135507
 C20     -C21     -C17     : 104.906166  H35     -C21     -C17     : 129.020326
 H35     -C21     -C20     : 126.073395  C19     -C22     -C3      : 126.649451
 H36     -C22     -C3      : 116.682802  H36     -C22     -C19     : 116.667745
 C24     -C23     -C9      : 126.649451  H37     -C23     -C9      : 116.667745
 H37     -C23     -C24     : 116.682802  C15     -C24     -N12     : 114.618603
 C23     -C24     -N12     : 122.143917  C23     -C24     -C15     : 123.237463
 N8      -Co25    -N4      :  89.787149  N12     -Co25    -N4      : 179.881495
 N12     -Co25    -N8      :  90.212774  N18     -Co25    -N4      :  90.212774
 N18     -Co25    -N8      : 179.925127  N18     -Co25    -N12     :  89.787149
 C75     -C26     -C1      : 105.260548  H81     -C26     -C1      : 107.817101
 H81     -C26     -C75     : 101.174346  H82     -C26     -C1      : 109.535316
 H82     -C26     -C75     : 124.064666  H82     -C26     -H81     : 107.887549
 C77     -C31     -C14     : 105.260548  H83     -C31     -C14     : 107.817101
 H83     -C31     -C77     : 101.174346  H84     -C31     -C14     : 109.535316
 H84     -C31     -C77     : 124.064666  H84     -C31     -H83     : 107.887549
 C42     -C38     -C39     : 104.712643  H63     -C38     -C39     : 130.121276
 H63     -C38     -C42     : 125.142964  C40     -C39     -C38     : 104.076004
 C64     -C39     -C38     :  80.297459  C64     -C39     -C40     : 156.879393
 N41     -C40     -C39     : 115.377289  C59     -C40     -C39     : 122.458776
 C59     -C40     -N41     : 122.163921  C42     -N41     -C40     : 100.945809
 Co62    -N41     -C40     : 129.184829  Co62    -N41     -C42     : 129.868581
 N41     -C42     -C38     : 114.881438  C43     -C42     -C38     : 123.101979
 C43     -C42     -N41     : 122.016529  C44     -C43     -C42     : 126.515450
 H65     -C43     -C42     : 116.192978  H65     -C43     -C44     : 117.290965
 N45     -C44     -C43     : 121.956481  C48     -C44     -C43     : 123.133517
 C48     -C44     -N45     : 114.909644  C46     -N45     -C44     : 100.404441
 Co62    -N45     -C44     : 129.863292  Co62    -N45     -C46     : 129.732206
 C47     -C46     -N45     : 114.728692  C60     -C46     -N45     : 122.007425
 C60     -C46     -C47     : 123.263689  C48     -C47     -C46     : 105.163633
 H66     -C47     -C46     : 128.963448  H66     -C47     -C48     : 125.872911
 C47     -C48     -C44     : 104.793541  H67     -C48     -C44     : 129.010495
 H67     -C48     -C47     : 126.195747  C61     -N49     -C50     : 100.945809
 Co62    -N49     -C50     : 129.868581  Co62    -N49     -C61     : 129.184829
 C51     -C50     -N49     : 114.881438  C53     -C50     -N49     : 122.016529
 C53     -C50     -C51     : 123.101979  C52     -C51     -C50     : 104.712643
 H68     -C51     -C50     : 125.142964  H68     -C51     -C52     : 130.121276
 C61     -C52     -C51     : 104.076004  C69     -C52     -C51     :  80.297459
 C69     -C52     -C61     : 156.879393  C54     -C53     -C50     : 126.515450
 H70     -C53     -C50     : 116.192978  H70     -C53     -C54     : 117.290965
 N55     -C54     -C53     : 121.956481  C58     -C54     -C53     : 123.133517
 C58     -C54     -N55     : 114.909644  C56     -N55     -C54     : 100.404441
 Co62    -N55     -C54     : 129.863292  Co62    -N55     -C56     : 129.732206
 C57     -C56     -N55     : 114.728692  C59     -C56     -N55     : 122.007425
 C59     -C56     -C57     : 123.263689  C58     -C57     -C56     : 105.163633
 H71     -C57     -C56     : 128.963448  H71     -C57     -C58     : 125.872911
 C57     -C58     -C54     : 104.793541  H72     -C58     -C54     : 129.010495
 H72     -C58     -C57     : 126.195747  C56     -C59     -C40     : 126.687636
 H73     -C59     -C40     : 116.528643  H73     -C59     -C56     : 116.783645
 C61     -C60     -C46     : 126.687636  H74     -C60     -C46     : 116.783645
 H74     -C60     -C61     : 116.528643  C52     -C61     -N49     : 115.377289
 C60     -C61     -N49     : 122.163921  C60     -C61     -C52     : 122.458776
 N45     -Co62    -N41     :  89.779141  N49     -Co62    -N41     : 179.965492
 N49     -Co62    -N45     :  90.220819  N55     -Co62    -N41     :  90.220819
 N55     -Co62    -N45     : 179.867018  N55     -Co62    -N49     :  89.779141
 N76     -C64     -C39     : 116.680766  H87     -C64     -C39     : 123.475350
 H87     -C64     -N76     :  78.821837  H88     -C64     -C39     :  73.717585
 H88     -C64     -N76     : 169.265933  H88     -C64     -H87     :  93.265010
 N78     -C69     -C52     : 116.680766  H89     -C69     -C52     : 123.475350
 H89     -C69     -N78     :  78.821837  H90     -C69     -C52     :  73.717585
 H90     -C69     -N78     : 169.265933  H90     -C69     -H89     :  93.265010
 N76     -C75     -C26     : 152.991043  O80     -C75     -C26     : 117.317123
 O80     -C75     -N76     :  88.564851  C75     -N76     -C64     : 136.438894
 H85     -N76     -C64     : 101.733825  H85     -N76     -C75     :  71.369571
 N78     -C77     -C31     : 152.991043  O79     -C77     -C31     : 117.317123
 O79     -C77     -N78     :  88.564851  C77     -N78     -C69     : 136.438894
 H86     -N78     -C69     : 101.733825  H86     -N78     -C77     :  71.369571
 
  torsional angles:
 
 C1      -C2      -C3      -N4      :   0.427315
 C1      -C2      -C3      -C22     :-179.618850
 C1      -C5      -N4      -C3      :  -0.042386
 C1      -C5      -N4      -Co25    :-179.707696
 C1      -C5      -C6      -C7      : 179.414127
 C1      -C5      -C6      -H28     :  -0.148531
 C1      -C26     -C75     -N76     : -18.052814
 C1      -C26     -C75     -O80     : 143.984446
 C2      -C1      -C5      -N4      :   0.301464
 C2      -C1      -C5      -C6      :-179.397731
 C2      -C1      -C26     -C75     : -65.846883
 C2      -C1      -C26     -H81     :  41.531686
 C2      -C1      -C26     -H82     : 158.684421
 C2      -C3      -N4      -C5      :  -0.229924
 C2      -C3      -N4      -Co25    : 179.437614
 C2      -C3      -C22     -C19     :-179.932320
 C2      -C3      -C22     -H36     :   0.050085
 C3      -C2      -C1      -C5      :  -0.398371
 C3      -C2      -C1      -C26     : 179.715762
 C3      -N4      -C5      -C6      : 179.661176
 C3      -N4      -Co25    -N8      :-179.388497
 C3      -N4      -Co25    -N12     : -89.425714
 C3      -N4      -Co25    -N18     :   0.536630
 C3      -C22     -C19     -N18     :   0.291530
 C3      -C22     -C19     -C20     :-179.953145
 N4      -C3      -C2      -H27     : 179.948434
 N4      -C3      -C22     -C19     :   0.018113
 N4      -C3      -C22     -H36     :-179.999482
 N4      -C5      -C1      -C26     :-179.817725
 N4      -C5      -C6      -C7      :  -0.263489
 N4      -C5      -C6      -H28     :-179.826147
 N4      -Co25    -N8      -C7      :  -0.208026
 N4      -Co25    -N8      -C9      : 179.653031
 N4      -Co25    -N12     -C13     :  90.148636
 N4      -Co25    -N12     -C24     : -89.425714
 N4      -Co25    -N18     -C17     : 179.910480
 N4      -Co25    -N18     -C19     :  -0.228462
 C5      -C1      -C2      -H27     :-179.927953
 C5      -C1      -C26     -C75     : 114.295674
 C5      -C1      -C26     -H81     :-138.325757
 C5      -C1      -C26     -H82     : -21.173022
 C5      -N4      -C3      -C22     : 179.815679
 C5      -N4      -Co25    -N8      :   0.185852
 C5      -N4      -Co25    -N12     :  90.148636
 C5      -N4      -Co25    -N18     :-179.889021
 C5      -C6      -C7      -N8      :   0.241564
 C5      -C6      -C7      -C11     :-179.515353
 C6      -C5      -C1      -C26     :   0.483080
 C6      -C5      -N4      -Co25    :  -0.004135
 C6      -C7      -N8      -C9      :-179.843556
 C6      -C7      -N8      -Co25    :   0.047602
 C6      -C7      -C11     -C10     : 179.865208
 C6      -C7      -C11     -H30     :  -0.016901
 C7      -N8      -C9      -C10     :   0.020195
 C7      -N8      -C9      -C23     : 179.794073
 C7      -N8      -Co25    -N12     : 179.910480
 C7      -N8      -Co25    -N18     : -90.148912
 C7      -C11     -C10     -C9      :  -0.069154
 C7      -C11     -C10     -H29     : 179.967247
 N8      -C7      -C6      -H28     : 179.801292
 N8      -C7      -C11     -C10     :   0.092636
 N8      -C7      -C11     -H30     :-179.789473
 N8      -C9      -C10     -C11     :   0.034463
 N8      -C9      -C10     -H29     : 179.996628
 N8      -C9      -C23     -C24     :   0.291530
 N8      -C9      -C23     -H37     :-179.690877
 N8      -Co25    -N12     -C13     :-179.889021
 N8      -Co25    -N12     -C24     :   0.536630
 N8      -Co25    -N18     -C17     : -90.148912
 N8      -Co25    -N18     -C19     :  89.712145
 C9      -N8      -C7      -C11     :  -0.067658
 C9      -N8      -Co25    -N12     :  -0.228462
 C9      -N8      -Co25    -N18     :  89.712145
 C9      -C10     -C11     -H30     : 179.817526
 C9      -C23     -C24     -N12     :   0.018113
 C9      -C23     -C24     -C15     :-179.932320
 C10     -C9      -N8      -Co25    :-179.871520
 C10     -C9      -C23     -C24     :-179.953145
 C10     -C9      -C23     -H37     :   0.064448
 C11     -C7      -C6      -H28     :   0.044375
 C11     -C7      -N8      -Co25    : 179.823499
 C11     -C10     -C9      -C23     :-179.736611
 N12     -C13     -C14     -C15     :   0.301464
 N12     -C13     -C14     -C31     :-179.817725
 N12     -C13     -C16     -C17     :  -0.263489
 N12     -C13     -C16     -H33     :-179.826147
 N12     -C24     -C15     -C14     :   0.427315
 N12     -C24     -C15     -H32     : 179.948434
 N12     -C24     -C23     -H37     :-179.999482
 N12     -Co25    -N18     -C17     :  -0.208026
 N12     -Co25    -N18     -C19     : 179.653031
 C13     -N12     -C24     -C15     :  -0.229924
 C13     -N12     -C24     -C23     : 179.815679
 C13     -N12     -Co25    -N18     :   0.185852
 C13     -C14     -C15     -C24     :  -0.398371
 C13     -C14     -C15     -H32     :-179.927953
 C13     -C14     -C31     -C77     : 114.295674
 C13     -C14     -C31     -H83     :-138.325757
 C13     -C14     -C31     -H84     : -21.173022
 C13     -C16     -C17     -N18     :   0.241564
 C13     -C16     -C17     -C21     :-179.515353
 C14     -C13     -N12     -C24     :  -0.042386
 C14     -C13     -N12     -Co25    :-179.707696
 C14     -C13     -C16     -C17     : 179.414127
 C14     -C13     -C16     -H33     :  -0.148531
 C14     -C15     -C24     -C23     :-179.618850
 C14     -C31     -C77     -N78     : -18.052814
 C14     -C31     -C77     -O79     : 143.984446
 C15     -C14     -C13     -C16     :-179.397731
 C15     -C14     -C31     -C77     : -65.846883
 C15     -C14     -C31     -H83     :  41.531686
 C15     -C14     -C31     -H84     : 158.684421
 C15     -C24     -N12     -Co25    : 179.437614
 C15     -C24     -C23     -H37     :   0.050085
 C16     -C13     -N12     -C24     : 179.661176
 C16     -C13     -N12     -Co25    :  -0.004135
 C16     -C13     -C14     -C31     :   0.483080
 C16     -C17     -N18     -C19     :-179.843556
 C16     -C17     -N18     -Co25    :   0.047602
 C16     -C17     -C21     -C20     : 179.865208
 C16     -C17     -C21     -H35     :  -0.016901
 C17     -N18     -C19     -C20     :   0.020195
 C17     -N18     -C19     -C22     : 179.794073
 C17     -C21     -C20     -C19     :  -0.069154
 C17     -C21     -C20     -H34     : 179.967247
 N18     -C17     -C16     -H33     : 179.801292
 N18     -C17     -C21     -C20     :   0.092636
 N18     -C17     -C21     -H35     :-179.789473
 N18     -C19     -C20     -C21     :   0.034463
 N18     -C19     -C20     -H34     : 179.996628
 N18     -C19     -C22     -H36     :-179.690877
 N18     -Co25    -N12     -C24     :-179.388497
 C19     -N18     -C17     -C21     :  -0.067658
 C19     -C20     -C21     -H35     : 179.817526
 C20     -C19     -N18     -Co25    :-179.871520
 C20     -C19     -C22     -H36     :   0.064448
 C21     -C17     -C16     -H33     :   0.044375
 C21     -C17     -N18     -Co25    : 179.823499
 C21     -C20     -C19     -C22     :-179.736611
 C22     -C3      -C2      -H27     :  -0.097732
 C22     -C3      -N4      -Co25    :  -0.516783
 C22     -C19     -N18     -Co25    :  -0.097642
 C22     -C19     -C20     -H34     :   0.225554
 C23     -C9      -N8      -Co25    :  -0.097642
 C23     -C9      -C10     -H29     :   0.225554
 C23     -C24     -N12     -Co25    :  -0.516783
 C23     -C24     -C15     -H32     :  -0.097732
 C24     -C15     -C14     -C31     : 179.715762
 C26     -C1      -C2      -H27     :   0.186180
 C26     -C75     -N76     -C64     :  57.707961
 C26     -C75     -N76     -H85     : -29.823146
 H29     -C10     -C11     -H30     :  -0.146073
 C31     -C14     -C15     -H32     :   0.186180
 C31     -C77     -N78     -C69     :  57.707961
 C31     -C77     -N78     -H86     : -29.823146
 H34     -C20     -C21     -H35     :  -0.146073
 C38     -C39     -C40     -N41     :  -0.788982
 C38     -C39     -C40     -C59     : 179.253619
 C38     -C39     -C64     -N76     : -23.741946
 C38     -C39     -C64     -H87     :  70.398215
 C38     -C39     -C64     -H88     : 153.389855
 C38     -C42     -N41     -C40     :   0.169493
 C38     -C42     -N41     -Co62    : 179.866261
 C38     -C42     -C43     -C44     :-179.668211
 C38     -C42     -C43     -H65     :   0.039018
 C39     -C38     -C42     -N41     :  -0.652939
 C39     -C38     -C42     -C43     : 179.263371
 C39     -C40     -N41     -C42     :   0.380477
 C39     -C40     -N41     -Co62    :-179.319262
 C39     -C40     -C59     -C56     : 179.827438
 C39     -C40     -C59     -H73     :  -0.277055
 C39     -C64     -N76     -C75     : -95.702392
 C39     -C64     -N76     -H85     : -20.479542
 C40     -C39     -C38     -C42     :   0.782133
 C40     -C39     -C38     -H63     : 179.070832
 C40     -C39     -C64     -N76     :  79.432015
 C40     -C39     -C64     -H87     : 173.572177
 C40     -C39     -C64     -H88     :-103.436183
 C40     -N41     -C42     -C43     :-179.747823
 C40     -N41     -Co62    -N45     : 179.502598
 C40     -N41     -Co62    -N49     : -90.563828
 C40     -N41     -Co62    -N55     :  -0.630386
 C40     -C59     -C56     -N55     :  -0.198440
 C40     -C59     -C56     -C57     : 179.970482
 N41     -C40     -C39     -C64     : -99.113183
 N41     -C40     -C59     -C56     :  -0.127094
 N41     -C40     -C59     -H73     : 179.768413
 N41     -C42     -C38     -H63     :-179.052661
 N41     -C42     -C43     -C44     :   0.242247
 N41     -C42     -C43     -H65     : 179.949476
 N41     -Co62    -N45     -C44     :   0.166776
 N41     -Co62    -N45     -C46     :-179.724517
 N41     -Co62    -N49     -C50     :  89.820267
 N41     -Co62    -N49     -C61     : -90.563828
 N41     -Co62    -N55     -C54     :-179.798716
 N41     -Co62    -N55     -C56     :   0.309991
 C42     -C38     -C39     -C64     : 157.567961
 C42     -N41     -C40     -C59     :-179.661985
 C42     -N41     -Co62    -N45     :  -0.113307
 C42     -N41     -Co62    -N49     :  89.820267
 C42     -N41     -Co62    -N55     : 179.753709
 C42     -C43     -C44     -N45     :  -0.188968
 C42     -C43     -C44     -C48     : 179.582103
 C43     -C42     -C38     -H63     :   0.863649
 C43     -C42     -N41     -Co62    :  -0.051056
 C43     -C44     -N45     -C46     : 179.859562
 C43     -C44     -N45     -Co62    :  -0.055440
 C43     -C44     -C48     -C47     :-179.837419
 C43     -C44     -C48     -H67     :  -0.001165
 C44     -N45     -C46     -C47     :  -0.066196
 C44     -N45     -C46     -C60     :-179.910691
 C44     -N45     -Co62    -N49     :-179.798716
 C44     -N45     -Co62    -N55     : -89.816227
 C44     -C48     -C47     -C46     :   0.006680
 C44     -C48     -C47     -H66     :-179.964411
 N45     -C44     -C43     -H65     :-179.893357
 N45     -C44     -C48     -C47     :  -0.051576
 N45     -C44     -C48     -H67     : 179.784678
 N45     -C46     -C47     -C48     :   0.039266
 N45     -C46     -C47     -H66     :-179.990862
 N45     -C46     -C60     -C61     :  -0.198440
 N45     -C46     -C60     -H74     : 179.906287
 N45     -Co62    -N49     -C50     : 179.753709
 N45     -Co62    -N49     -C61     :  -0.630386
 N45     -Co62    -N55     -C54     : -89.816227
 N45     -Co62    -N55     -C56     :  90.292481
 C46     -N45     -C44     -C48     :   0.070929
 C46     -N45     -Co62    -N49     :   0.309991
 C46     -N45     -Co62    -N55     :  90.292481
 C46     -C47     -C48     -H67     :-179.835655
 C46     -C60     -C61     -N49     :  -0.127094
 C46     -C60     -C61     -C52     : 179.827438
 C47     -C46     -N45     -Co62    : 179.848968
 C47     -C46     -C60     -C61     : 179.970482
 C47     -C46     -C60     -H74     :   0.075209
 C48     -C44     -C43     -H65     :  -0.122286
 C48     -C44     -N45     -Co62    :-179.844073
 C48     -C47     -C46     -C60     : 179.881562
 N49     -C50     -C51     -C52     :  -0.652939
 N49     -C50     -C51     -H68     :-179.052661
 N49     -C50     -C53     -C54     :   0.242247
 N49     -C50     -C53     -H70     : 179.949476
 N49     -C61     -C52     -C51     :  -0.788982
 N49     -C61     -C52     -C69     : -99.113183
 N49     -C61     -C60     -H74     : 179.768413
 N49     -Co62    -N55     -C54     :   0.166776
 N49     -Co62    -N55     -C56     :-179.724517
 C50     -N49     -C61     -C52     :   0.380477
 C50     -N49     -C61     -C60     :-179.661985
 C50     -N49     -Co62    -N55     :  -0.113307
 C50     -C51     -C52     -C61     :   0.782133
 C50     -C51     -C52     -C69     : 157.567961
 C50     -C53     -C54     -N55     :  -0.188968
 C50     -C53     -C54     -C58     : 179.582103
 C51     -C50     -N49     -C61     :   0.169493
 C51     -C50     -N49     -Co62    : 179.866261
 C51     -C50     -C53     -C54     :-179.668211
 C51     -C50     -C53     -H70     :   0.039018
 C51     -C52     -C61     -C60     : 179.253619
 C51     -C52     -C69     -N78     : -23.741946
 C51     -C52     -C69     -H89     :  70.398215
 C51     -C52     -C69     -H90     : 153.389855
 C52     -C51     -C50     -C53     : 179.263371
 C52     -C61     -N49     -Co62    :-179.319262
 C52     -C61     -C60     -H74     :  -0.277055
 C52     -C69     -N78     -C77     : -95.702392
 C52     -C69     -N78     -H86     : -20.479542
 C53     -C50     -N49     -C61     :-179.747823
 C53     -C50     -N49     -Co62    :  -0.051056
 C53     -C50     -C51     -H68     :   0.863649
 C53     -C54     -N55     -C56     : 179.859562
 C53     -C54     -N55     -Co62    :  -0.055440
 C53     -C54     -C58     -C57     :-179.837419
 C53     -C54     -C58     -H72     :  -0.001165
 C54     -N55     -C56     -C57     :  -0.066196
 C54     -N55     -C56     -C59     :-179.910691
 C54     -C58     -C57     -C56     :   0.006680
 C54     -C58     -C57     -H71     :-179.964411
 N55     -C54     -C53     -H70     :-179.893357
 N55     -C54     -C58     -C57     :  -0.051576
 N55     -C54     -C58     -H72     : 179.784678
 N55     -C56     -C57     -C58     :   0.039266
 N55     -C56     -C57     -H71     :-179.990862
 N55     -C56     -C59     -H73     : 179.906287
 N55     -Co62    -N49     -C61     : 179.502598
 C56     -N55     -C54     -C58     :   0.070929
 C56     -C57     -C58     -H72     :-179.835655
 C57     -C56     -N55     -Co62    : 179.848968
 C57     -C56     -C59     -H73     :   0.075209
 C58     -C54     -C53     -H70     :  -0.122286
 C58     -C54     -N55     -Co62    :-179.844073
 C58     -C57     -C56     -C59     : 179.881562
 C59     -C40     -C39     -C64     :  80.929417
 C59     -C40     -N41     -Co62    :   0.638276
 C59     -C56     -N55     -Co62    :   0.004473
 C59     -C56     -C57     -H71     :  -0.148566
 C60     -C46     -N45     -Co62    :   0.004473
 C60     -C46     -C47     -H66     :  -0.148566
 C60     -C61     -N49     -Co62    :   0.638276
 C60     -C61     -C52     -C69     :  80.929417
 C61     -C52     -C51     -H68     : 179.070832
 C61     -C52     -C69     -N78     :  79.432015
 C61     -C52     -C69     -H89     : 173.572177
 C61     -C52     -C69     -H90     :-103.436183
 H63     -C38     -C39     -C64     : -24.143340
 C64     -N76     -C75     -O80     :-106.384137
 H66     -C47     -C48     -H67     :   0.193254
 H68     -C51     -C52     -C69     : -24.143340
 C69     -N78     -C77     -O79     :-106.384137
 H71     -C57     -C58     -H72     :   0.193254
 C75     -N76     -C64     -H87     : 142.296133
 C75     -N76     -C64     -H88     :  99.242318
 N76     -C75     -C26     -H81     :-130.212338
 N76     -C75     -C26     -H82     : 109.023591
 C77     -N78     -C69     -H89     : 142.296133
 C77     -N78     -C69     -H90     :  99.242318
 N78     -C77     -C31     -H83     :-130.212338
 N78     -C77     -C31     -H84     : 109.023591
 O79     -C77     -C31     -H83     :  31.824922
 O79     -C77     -C31     -H84     : -88.939149
 O79     -C77     -N78     -H86     : 166.084756
 O80     -C75     -C26     -H81     :  31.824922
 O80     -C75     -C26     -H82     : -88.939149
 O80     -C75     -N76     -H85     : 166.084756
 H85     -N76     -C64     -H87     :-142.481017
 H85     -N76     -C64     -H88     : 174.465168
 H86     -N78     -C69     -H89     :-142.481017
 H86     -N78     -C69     -H90     : 174.465168
 
  nuclear repulsion energy.......   10091.906793981 hartrees
 
 Non-default options chosen:
   SCF calculation type: DFT             
   DFT=Becke_3_Parameter/HF+Slater+Becke88+VWN+LYP (B3LYP)
   Geometry will be optimized in redundant internal coordinates
   HF Initial guess: read from Jaguar .in file
   Level shift virtual orbitals by  0.500
   highest accuracy cutoffs used in SCF
   J and K strips stored in core if nfb*nham < 1500
  
 Non-default print settings:
     11= 2
  
 Temporary integer options set:
     21=-1
  
  end of program pre
   
   
  start of program onee
  smallest eigenvalue of S:    2.521E-04
  number of canonical orbitals.....   999
  end of program onee
   
   
  start of program hfig
  initial wavefunction read from .in file
  reading wavefunction from input file
   223  orbitals read from .in file
  virtual orbitals input are ignored
  Largest Normalization error   0.167794710752009
  RMS Normalization error   7.401130774760271E-003
  warning: unnormalized input orbitals:   197
  warning: nonorthogonal input orbital pairs:   9916
 
  Irreducible     Total no   No of occupied orbitals 
  representation  orbitals   Shell_1  Shell_2    ...
  A                501        108
  B                498        105
  ------------------------
  Orbital occupation/shell    1.000
 
  end of program hfig
   
   
  start of program probe
  end of program probe
   
   
  start of program grid
   
  number of gridpoints: 
     atom         C1        C2        C3        N4        C5        C6        C7        N8
  grid # 1        90        85        86       101        84        84         0         0
  grid # 2        98        93        94       103        94        94         0         0
  grid # 3       189       182       186       221       189       183         0         0
  grid # 4       351       310       347       414       348       328         0         0
  grid # 5      4324      4324      4324      4324      4324      4324         0         0
  grid # 6      1192      1192      1192      1192      1192      1192         0         0
  grid # 7      5288      5288      5288      5288      5288      5288         0         0
  grid # 8      7728      7728      7728      7826      7728      7728         0         0
  grid # 9       756       756       756       778       756       756         0         0
   
  number of gridpoints: 
     atom         C9       C10       C11       N12       C13       C14       C15       C16
  grid # 1         0         0         0         0         0         0         0         0
  grid # 2         0         0         0         0         0         0         0         0
  grid # 3         0         0         0         0         0         0         0         0
  grid # 4         0         0         0         0         0         0         0         0
  grid # 5         0         0         0         0         0         0         0         0
  grid # 6         0         0         0         0         0         0         0         0
  grid # 7         0         0         0         0         0         0         0         0
  grid # 8         0         0         0         0         0         0         0         0
  grid # 9         0         0         0         0         0         0         0         0
   
  number of gridpoints: 
     atom        C17       N18       C19       C20       C21       C22       C23       C24
  grid # 1        86       101        86        85        85        84         0         0
  grid # 2        94       103        94        93        93        92         0         0
  grid # 3       186       221       186       182       183       184         0         0
  grid # 4       349       414       349       310       310       330         0         0
  grid # 5      4324      4324      4324      4324      4324      4324         0         0
  grid # 6      1192      1192      1192      1192      1192      1192         0         0
  grid # 7      5288      5288      5288      5288      5288      5288         0         0
  grid # 8      7728      7826      7728      7728      7728      7728         0         0
  grid # 9       756       778       756       756       756       756         0         0
   
  number of gridpoints: 
     atom       Co25       C26       H27       H28       H29       H30       C31       H32
  grid # 1        45        75        72        70         0         0         0         0
  grid # 2       182        83       116       111         0         0         0         0
  grid # 3        84       152       219       206         0         0         0         0
  grid # 4       154       255       453       435         0         0         0         0
  grid # 5      2242      4324      4324      4324         0         0         0         0
  grid # 6       640      1192      1192      1192         0         0         0         0
  grid # 7      4096      5288      5288      5288         0         0         0         0
  grid # 8      8434      7728      6084      6084         0         0         0         0
  grid # 9       550       756       796       796         0         0         0         0
   
  number of gridpoints: 
     atom        H33       H34       H35       H36       H37       C38       C39       C40
  grid # 1         0        72        72        72         0        84        92        84
  grid # 2         0       117       117       117         0        90       100        94
  grid # 3         0       220       220       213         0       180       201       191
  grid # 4         0       461       462       448         0       300       366       352
  grid # 5         0      4324      4324      4324         0      4324      4324      4324
  grid # 6         0      1192      1192      1192         0      1192      1192      1192
  grid # 7         0      5288      5288      5288         0      5288      5288      5288
  grid # 8         0      6084      6084      6084         0      7728      7728      7728
  grid # 9         0       796       796       796         0       756       756       756
   
  number of gridpoints: 
     atom        N41       C42       C43       C44       N45       C46       C47       C48
  grid # 1        99        84        84        84         0         0         0         0
  grid # 2       103        94        94        94         0         0         0         0
  grid # 3       221       190       183       190         0         0         0         0
  grid # 4       420       351       327       346         0         0         0         0
  grid # 5      4324      4324      4324      4324         0         0         0         0
  grid # 6      1192      1192      1192      1192         0         0         0         0
  grid # 7      5288      5288      5288      5288         0         0         0         0
  grid # 8      7826      7728      7728      7728         0         0         0         0
  grid # 9       778       756       756       756         0         0         0         0
   
  number of gridpoints: 
     atom        N49       C50       C51       C52       C53       C54       N55       C56
  grid # 1         0         0         0         0         0         0       101        83
  grid # 2         0         0         0         0         0         0       103        93
  grid # 3         0         0         0         0         0         0       221       190
  grid # 4         0         0         0         0         0         0       414       350
  grid # 5         0         0         0         0         0         0      4324      4324
  grid # 6         0         0         0         0         0         0      1192      1192
  grid # 7         0         0         0         0         0         0      5288      5288
  grid # 8         0         0         0         0         0         0      7826      7728
  grid # 9         0         0         0         0         0         0       778       756
   
  number of gridpoints: 
     atom        C57       C58       C59       C60       C61      Co62       H63       C64
  grid # 1        85        85        84         0         0        45        63        85
  grid # 2        93        93        92         0         0       186       100        90
  grid # 3       182       183       183         0         0        84       187       176
  grid # 4       308       309       328         0         0       156       416       300
  grid # 5      4324      4324      4324         0         0      2242      4324      4324
  grid # 6      1192      1192      1192         0         0       640      1192      1192
  grid # 7      5288      5288      5288         0         0      4096      5288      5288
  grid # 8      7728      7728      7728         0         0      8434      6084      7728
  grid # 9       756       756       756         0         0       550       796       756
   
  number of gridpoints: 
     atom        H65       H66       H67       H68       C69       H70       H71       H72
  grid # 1        72         0         0         0         0         0        72        72
  grid # 2       115         0         0         0         0         0       117       117
  grid # 3       212         0         0         0         0         0       220       220
  grid # 4       447         0         0         0         0         0       461       462
  grid # 5      4324         0         0         0         0         0      4324      4324
  grid # 6      1192         0         0         0         0         0      1192      1192
  grid # 7      5288         0         0         0         0         0      5288      5288
  grid # 8      6084         0         0         0         0         0      6084      6084
  grid # 9       796         0         0         0         0         0       796       796
   
  number of gridpoints: 
     atom        H73       H74       C75       N76       C77       N78       O79       O80
  grid # 1        72         0        77        97         0         0         0       111
  grid # 2       117         0        85       103         0         0         0       122
  grid # 3       214         0       170       221         0         0         0       264
  grid # 4       449         0       309       369         0         0         0       498
  grid # 5      4324         0      4324      4324         0         0         0      4324
  grid # 6      1192         0      1192      1192         0         0         0      1192
  grid # 7      5288         0      5288      5288         0         0         0      5288
  grid # 8      6084         0      7728      7826         0         0         0     10988
  grid # 9       796         0       756       778         0         0         0       774
   
  number of gridpoints: 
     atom        H81       H82       H83       H84       H85       H86       H87       H88
  grid # 1        67        70         0         0        60         0        68        66
  grid # 2       106       109         0         0        99         0       109       108
  grid # 3       201       211         0         0       183         0       206       197
  grid # 4       430       449         0         0       411         0       446       428
  grid # 5      4324      4324         0         0      4324         0      4324      4324
  grid # 6      1192      1192         0         0      1192         0      1192      1192
  grid # 7      5288      5288         0         0      5288         0      5288      5288
  grid # 8      6084      6084         0         0      6084         0      6084      6084
  grid # 9       796       796         0         0       796         0       796       796
   
  number of gridpoints: 
     atom        H89       H90     total
  grid # 1         0         0      3681
  grid # 2         0         0      4814
  grid # 3         0         0      8887
  grid # 4         0         0     17030
  grid # 5         0         0    194740
  grid # 6         0         0     53728
  grid # 7         0         0    240864
  grid # 8         0         0    335990
  grid # 9         0         0     35092
   
  end of program grid
   
   
  start of program rwr
 Will use SVD to solve RwR matrix  3 for grid 2
 for energies; inverse condition number = 4.4E-15
 Will use SVD to solve RwR matrix  4 for grid 2
 for energies; inverse condition number = 1.6E-16
 Will use SVD to solve RwR matrix  5 for grid 2
 for energies; inverse condition number = 3.8E-15
 Will use SVD to solve RwR matrix  7 for grid 2
 for energies; inverse condition number = 4.8E-15
 Will use SVD to solve RwR matrix  8 for grid 2
 for energies; inverse condition number = 2.1E-16
 Will use SVD to solve RwR matrix  9 for grid 2
 for energies; inverse condition number = 5.2E-15
 Will use SVD to solve RwR matrix 25 for grid 2
 for energies; inverse condition number = 8.3E-15
 Will use SVD to solve RwR matrix 40 for grid 2
 for energies; inverse condition number = 4.4E-15
 Will use SVD to solve RwR matrix 41 for grid 2
 for energies; inverse condition number = 1.6E-16
 Will use SVD to solve RwR matrix 42 for grid 2
 for energies; inverse condition number = 5.2E-15
 Will use SVD to solve RwR matrix 44 for grid 2
 for energies; inverse condition number = 4.7E-15
 Will use SVD to solve RwR matrix 45 for grid 2
 for energies; inverse condition number = 2.1E-16
 Will use SVD to solve RwR matrix 46 for grid 2
 for energies; inverse condition number = 5.5E-15
 Will use SVD to solve RwR matrix 62 for grid 2
 for energies; inverse condition number = 8.4E-15
 spptrf failed in rinv with info = 208
 switching to SVD for RwR matrix   4 for grid  4
 spptrf failed in rinv with info = 242
 switching to SVD for RwR matrix   8 for grid  4
 spptrf failed in rinv with info = 294
 switching to SVD for RwR matrix  25 for grid  4
 spptrf failed in rinv with info = 228
 switching to SVD for RwR matrix  41 for grid  4
 spptrf failed in rinv with info = 244
 switching to SVD for RwR matrix  45 for grid  4
 spptrf failed in rinv with info = 310
 switching to SVD for RwR matrix  62 for grid  4
 spptrf failed in rinv with info = 252
 switching to SVD for RwR matrix  76 for grid  4
  end of program rwr
   
   
  start of program scf 
 number of electrons..........        426
 number of alpha electrons....        213
 number of beta electrons.....        213
 number of orbitals, total....        999
 number of core orbitals......        213
 number of open shell orbs....          0
 number of occupied orbitals..        213
 number of virtual orbitals...        786
 number of hamiltonians.......          1
 number of shells.............          1
 SCF type: DFT=Becke_3_Parameter/HF+Slater+Becke88+VWN+LYP (B3LYP)
  
       i  u  d  i  g                   
       t  p  i  c  r                                 RMS    maximum
       e  d  i  u  i                       energy  density   DIIS  
       r  t  s  t  d       total energy    change  change    error 
  
etot   1  N  N  1  U   -2755.16719561325           1.9E-03  4.8E-02
etot   2  N  Y  1  U   -2757.31878888387  2.2E+00  1.0E-03  1.8E-02
etot   3  N  Y  1  U   -2757.37786035295  5.9E-02  6.2E-04  5.1E-02
etot   4  N  Y  1  U   -2757.71193628066  3.3E-01  4.0E-04  8.6E-03
etot   5  N  Y  1  U   -2757.79874910403  8.7E-02  3.2E-04  6.1E-03
etot   6  N  Y  1  U   -2757.84137438104  4.3E-02  2.6E-04  3.7E-03
etot   7  N  Y  1  U   -2757.86555623387  2.4E-02  2.0E-04  1.0E-02
etot   8  N  Y  1  U   -2757.88377930457  1.8E-02  1.7E-04  3.4E-03
etot   9  N  Y  1  U   -2757.89624803918  1.2E-02  1.4E-04  1.6E-03
etot  10  N  Y  1  U   -2757.90368141226  7.4E-03  1.1E-04  1.4E-03
etot  11  N  Y  1  U   -2757.90810405751  4.4E-03  8.2E-05  1.2E-03
etot  12  N  Y  1  U   -2757.91078140882  2.7E-03  6.5E-05  8.2E-04
etot  13  N  Y  1  U   -2757.91233331008  1.6E-03  4.8E-05  8.4E-04
etot  14  N  Y  1  U   -2757.91318298675  8.5E-04  3.7E-05  7.2E-04
etot  15  N  Y  1  U   -2757.91366064251  4.8E-04  2.7E-05  4.2E-04
etot  16  N  Y  1  U   -2757.91395162323  2.9E-04  2.1E-05  3.5E-04
etot  17  N  Y  1  U   -2757.91413224901  1.8E-04  1.7E-05  4.1E-04
etot  18  N  Y  1  U   -2757.91424949546  1.2E-04  1.3E-05  5.4E-04
etot  19  N  Y  1  U   -2757.91433970384  9.0E-05  1.2E-05  3.5E-04
etot  20  N  Y  1  U   -2757.91440047554  6.1E-05  1.0E-05  3.0E-04
etot  21  N  Y  1  U   -2757.91444432518  4.4E-05  8.6E-06  2.6E-04
etot  22  N  Y  1  U   -2757.91447692306  3.3E-05  7.0E-06  2.3E-04
etot  23  N  Y  1  U   -2757.91450193404  2.5E-05  5.7E-06  1.8E-04
etot  24  N  Y  1  U   -2757.91452045500  1.9E-05  5.1E-06  1.9E-04
etot  25  N  Y  1  U   -2757.91453465141  1.4E-05  5.3E-06  1.6E-04
etot  26  N  Y  1  U   -2757.91454684803  1.2E-05  5.1E-06  1.7E-04
etot  27  N  Y  1  U   -2757.91455726341  1.0E-05  4.5E-06  2.2E-04
etot  28  N  N  1  U   -2757.91456705946  9.8E-06  0.0E+00  0.0E+00
  
  
 Energy components, in hartrees:
   (A)  Nuclear repulsion............   10091.90679398148
   (E)  Total one-electron terms.....  -23984.70695590738
   (I)  Total two-electron terms.....   11134.88559486644
   (J)    Coulomb....................   11513.64146286305
   (K)    Exchange+Correlation.......    -378.75586799661
   (L)  Electronic energy............  -12849.82136104094  (E+I)
   (N)  Total energy.................   -2757.91456705946  (A+L)
  
 SCFE: SCF energy: DFT(b3lyp)     -2757.91456705946 hartrees   iterations:  28
  
 
 HOMO energy:    -0.17541
 LUMO energy:    -0.15461
 
  Orbital energies/symmetry label: 
  -19.12749 A        -19.12749 B        -14.37205 B        -14.37205 A      
  -14.34025 B        -14.34024 A        -14.33739 B        -14.33738 A      
  -14.33619 B        -14.33618 A        -14.33439 B        -14.33438 A      
  -10.29815 B        -10.29815 A        -10.24374 B        -10.24374 A      
  -10.21841 B        -10.21841 A        -10.21406 A        -10.21405 B      
  -10.21311 B        -10.21311 A        -10.21142 A        -10.21141 B      
  -10.20955 A        -10.20954 B        -10.20759 A        -10.20758 B      
  -10.20542 A        -10.20541 B        -10.20495 A        -10.20495 B      
  -10.19868 B        -10.19868 A        -10.19847 A        -10.19847 B      
  -10.18525 B        -10.18524 A        -10.18249 B        -10.18248 A      
  -10.17920 B        -10.17920 A        -10.17526 B        -10.17525 A      
  -10.17488 B        -10.17486 A        -10.17439 B        -10.17439 A      
  -10.17391 A        -10.17388 B        -10.17388 B        -10.17384 A      
  -10.17359 B        -10.17358 A        -10.17339 B        -10.17338 A      
  -10.17266 B        -10.17265 A         -3.73142 A         -3.72441 A      
   -2.44957 B         -2.43633 B         -2.42015 B         -2.42008 B      
   -2.39574 A         -2.38888 A         -1.10022 B         -1.10022 A      
   -0.99722 A         -0.99144 A         -0.99097 B         -0.98446 B      
   -0.98264 B         -0.98198 B         -0.97872 A         -0.97384 A      
   -0.89329 B         -0.89328 A         -0.86615 A         -0.86590 B      
   -0.81651 A         -0.81113 A         -0.80492 B         -0.80490 A      
   -0.79546 B         -0.79124 A         -0.79042 B         -0.78923 B      
   -0.78824 A         -0.78505 B         -0.78221 B         -0.78027 B      
   -0.77676 A         -0.77389 B         -0.73891 A         -0.73322 A      
   -0.71463 A         -0.71060 A         -0.69924 B         -0.69459 A      
   -0.65493 B         -0.65160 B         -0.64625 B         -0.64270 B      
   -0.60817 A         -0.60618 A         -0.59789 B         -0.59118 B      
   -0.58380 A         -0.58310 B         -0.58058 A         -0.57737 B      
   -0.57219 A         -0.57166 A         -0.56877 A         -0.56626 B      
   -0.56492 A         -0.56189 A         -0.55521 A         -0.54677 B      
   -0.54441 A         -0.54226 B         -0.53825 B         -0.53102 A      
   -0.52714 B         -0.52218 A         -0.52004 B         -0.50411 B      
   -0.50402 A         -0.49999 A         -0.49808 B         -0.49221 B      
   -0.48790 B         -0.47238 B         -0.46416 A         -0.45893 B      
   -0.45651 A         -0.44843 A         -0.44776 B         -0.44654 A      
   -0.44105 A         -0.43738 B         -0.43630 A         -0.43250 A      
   -0.43211 B         -0.42807 A         -0.42799 B         -0.42413 B      
   -0.42159 A         -0.42019 B         -0.41961 A         -0.41783 B      
   -0.41414 A         -0.40833 A         -0.40513 A         -0.40507 B      
   -0.40368 A         -0.40027 B         -0.39937 A         -0.39814 A      
   -0.39745 B         -0.39154 B         -0.38826 B         -0.38610 B      
   -0.38476 A         -0.38061 B         -0.37671 B         -0.37631 A      
   -0.37363 B         -0.37272 A         -0.36996 A         -0.36332 A      
   -0.36200 B         -0.35761 A         -0.35331 A         -0.34807 A      
   -0.33898 B         -0.33673 A         -0.33250 B         -0.33105 B      
   -0.32830 B         -0.32749 B         -0.32388 A         -0.30876 A      
   -0.29143 B         -0.29080 A         -0.28736 B         -0.28396 B      
   -0.27868 B         -0.27793 A         -0.27602 A         -0.27556 B      
   -0.27311 B         -0.27089 B         -0.26884 A         -0.26619 B      
   -0.26581 A         -0.26528 B         -0.26177 A         -0.25235 A      
   -0.22294 A         -0.21915 B         -0.21562 A         -0.21364 B      
   -0.21347 A         -0.21331 B         -0.20171 A         -0.19488 A      
   -0.18996 B         -0.18912 A         -0.18236 A         -0.17709 B      
   -0.17541 A         -0.15461 B         -0.08402 B         -0.07514 B      
   -0.07170 B         -0.06649 A         -0.06340 B         -0.05484 B      
   -0.03407 A         -0.02110 A         -0.01814 A      
 
  end of program scf 
   
   
  start of program der1a
  end of program der1a
   
   
  start of program rwr
 Will use SVD to solve RwR matrix  3 for grid 4
 for gradients; inverse condition number = 9.3E-16
 spptrf failed in rinv with info = 251
 switching to SVD for RwR matrix   4 for grid  4
 Will use SVD to solve RwR matrix  5 for grid 4
 for gradients; inverse condition number = 9.1E-16
 Will use SVD to solve RwR matrix  7 for grid 4
 for gradients; inverse condition number = 1.3E-15
 spptrf failed in rinv with info = 287
 switching to SVD for RwR matrix   8 for grid  4
 Will use SVD to solve RwR matrix  9 for grid 4
 for gradients; inverse condition number = 1.5E-15
 spptrf failed in rinv with info = 341
 switching to SVD for RwR matrix  25 for grid  4
 spptrf failed in rinv with info =  67
 switching to SVD for RwR matrix  30 for grid  4
 Will use SVD to solve RwR matrix 40 for grid 4
 for gradients; inverse condition number = 1.5E-15
 spptrf failed in rinv with info = 267
 switching to SVD for RwR matrix  41 for grid  4
 Will use SVD to solve RwR matrix 42 for grid 4
 for gradients; inverse condition number = 1.2E-15
 Will use SVD to solve RwR matrix 44 for grid 4
 for gradients; inverse condition number = 1.3E-15
 spptrf failed in rinv with info = 260
 switching to SVD for RwR matrix  45 for grid  4
 Will use SVD to solve RwR matrix 46 for grid 4
 for gradients; inverse condition number = 1.5E-15
 spptrf failed in rinv with info = 341
 switching to SVD for RwR matrix  62 for grid  4
 spptrf failed in rinv with info = 304
 switching to SVD for RwR matrix  76 for grid  4
 spptrf failed in rinv with info = 178
 switching to SVD for RwR matrix  85 for grid  4
  end of program rwr
   
   
  start of program der1b
   
  forces (hartrees/bohr) : total     
   
 atom  label           x              y              z
 ---- --------   -------------  -------------  -------------
    1 C1          2.497792E-03  -4.164762E-02   1.716661E-02
    2 C2         -1.252948E-03   3.179642E-02   8.608250E-05
    3 C3         -2.113970E-02   8.510862E-02   5.605358E-04
    4 N4         -1.189989E-02   2.545725E-04   3.059431E-05
    5 C5         -9.633257E-03  -8.895918E-02  -1.180020E-03
    6 C6         -1.503101E-02   1.496955E-02   6.770323E-04
    7 C7          8.600027E-02   2.318154E-02  -4.284645E-05
    8 N8         -1.027960E-04   6.236320E-03   1.797513E-04
    9 C9         -8.946831E-02   1.107919E-02   6.647834E-04
   10 C10        -2.279194E-02  -6.797843E-03   3.349458E-04
   11 C11         2.427776E-02  -2.892323E-03   3.462812E-04
   12 N12         1.189989E-02  -2.545725E-04   3.059431E-05
   13 C13         9.633257E-03   8.895918E-02  -1.180020E-03
   14 C14        -2.497792E-03   4.164762E-02   1.716661E-02
   15 C15         1.252948E-03  -3.179642E-02   8.608250E-05
   16 C16         1.503101E-02  -1.496955E-02   6.770323E-04
   17 C17        -8.600027E-02  -2.318154E-02  -4.284645E-05
   18 N18         1.027960E-04  -6.236320E-03   1.797513E-04
   19 C19         8.946831E-02  -1.107919E-02   6.647834E-04
   20 C20         2.279194E-02   6.797843E-03   3.349458E-04
   21 C21        -2.427776E-02   2.892323E-03   3.462812E-04
   22 C22        -1.265259E-02  -1.467506E-02   2.145823E-04
   23 C23         1.265259E-02   1.467506E-02   2.145823E-04
   24 C24         2.113970E-02  -8.510862E-02   5.605358E-04
   25 Co25        0.000000E+00   0.000000E+00  -3.106190E-03
   26 C26        -2.119013E-01  -8.537155E-02   9.022170E-02
   27 H27         9.536850E-03   1.671147E-02   3.533770E-04
   28 H28         2.448857E-02  -2.441926E-02  -4.149190E-04
   29 H29        -1.584607E-02  -1.101895E-02   1.248230E-04
   30 H30         1.712572E-02  -8.200075E-03  -1.558587E-04
   31 C31         2.119013E-01   8.537155E-02   9.022170E-02
   32 H32        -9.536850E-03  -1.671147E-02   3.533770E-04
   33 H33        -2.448857E-02   2.441926E-02  -4.149190E-04
   34 H34         1.584607E-02   1.101895E-02   1.248230E-04
   35 H35        -1.712572E-02   8.200075E-03  -1.558587E-04
   36 H36         2.273657E-02   2.644164E-02   1.159014E-04
   37 H37        -2.273657E-02  -2.644164E-02   1.159014E-04
   38 C38        -8.015400E-02  -5.146052E-02  -6.392706E-02
   39 C39         6.283551E-02  -5.489730E-02  -6.553930E-03
   40 C40        -1.713234E-02   9.415408E-02   1.137719E-02
   41 N41        -5.774550E-03   6.353286E-04  -1.780385E-03
   42 C42        -5.968951E-03  -9.352362E-02   3.455831E-03
   43 C43        -1.758660E-02   1.133018E-02   3.525596E-04
   44 C44         8.932630E-02   2.423549E-02  -3.139615E-04
   45 N45         1.486129E-03   1.284689E-02  -2.009632E-04
   46 C46        -8.942155E-02   3.904750E-03  -8.873882E-04
   47 C47        -2.648111E-02  -7.293230E-03  -1.672772E-04
   48 C48         2.548616E-02   1.506343E-03  -2.154473E-04
   49 N49         5.774550E-03  -6.353286E-04  -1.780385E-03
   50 C50         5.968951E-03   9.352362E-02   3.455831E-03
   51 C51         8.015400E-02   5.146052E-02  -6.392706E-02
   52 C52        -6.283551E-02   5.489730E-02  -6.553930E-03
   53 C53         1.758660E-02  -1.133018E-02   3.525596E-04
   54 C54        -8.932630E-02  -2.423549E-02  -3.139615E-04
   55 N55        -1.486129E-03  -1.284689E-02  -2.009632E-04
   56 C56         8.942155E-02  -3.904750E-03  -8.873882E-04
   57 C57         2.648111E-02   7.293230E-03  -1.672772E-04
   58 C58        -2.548616E-02  -1.506343E-03  -2.154473E-04
   59 C59        -1.315706E-02  -1.522836E-02   2.627392E-05
   60 C60         1.315706E-02   1.522836E-02   2.627392E-05
   61 C61         1.713234E-02  -9.415408E-02   1.137719E-02
   62 Co62        0.000000E+00   0.000000E+00   1.137487E-03
   63 H63        -2.097475E-02  -1.057139E-02  -3.156849E-02
   64 C64         5.687336E-02  -5.150355E-02  -3.859426E-03
   65 H65         2.716349E-02  -2.268557E-02  -2.297051E-05
   66 H66        -1.574243E-02  -1.161535E-02  -1.256616E-04
   67 H67         1.763217E-02  -7.804222E-03   1.398399E-06
   68 H68         2.097475E-02   1.057139E-02  -3.156849E-02
   69 C69        -5.687336E-02   5.150355E-02  -3.859426E-03
   70 H70        -2.716349E-02   2.268557E-02  -2.297051E-05
   71 H71         1.574243E-02   1.161535E-02  -1.256616E-04
   72 H72        -1.763217E-02   7.804222E-03   1.398399E-06
   73 H73         2.181696E-02   2.700845E-02  -3.493737E-04
   74 H74        -2.181696E-02  -2.700845E-02  -3.493737E-04
   75 C75         1.711664E-01   8.563494E-02  -1.685892E-01
   76 N76        -1.651710E-01  -4.650336E-04   2.237079E-02
   77 C77        -1.711664E-01  -8.563494E-02  -1.685892E-01
   78 N78         1.651710E-01   4.650336E-04   2.237079E-02
   79 O79        -1.515814E-01   4.635994E-02   9.111612E-02
   80 O80         1.515814E-01  -4.635994E-02   9.111612E-02
   81 H81         7.077596E-02   4.407076E-02   8.878476E-02
   82 H82         8.869134E-03   1.610315E-02  -1.878504E-02
   83 H83        -7.077596E-02  -4.407076E-02   8.878476E-02
   84 H84        -8.869134E-03  -1.610315E-02  -1.878504E-02
   85 H85         1.910161E-02   1.999835E-02  -5.310870E-02
   86 H86        -1.910161E-02  -1.999835E-02  -5.310870E-02
   87 H87        -5.260430E-02   9.234023E-03  -1.093792E-02
   88 H88         2.549495E-02   1.203235E-01   3.675217E-02
   89 H89         5.260430E-02  -9.234023E-03  -1.093792E-02
   90 H90        -2.549495E-02  -1.203235E-01   3.675217E-02
 -------------   -------------  -------------  -------------
     total        0.000000E+00   0.000000E+00   2.285887E-03
   
  end of program der1b
   
   
  start of program geopt   1
  
  geometry optimization step  1
  energy:           -2757.91456705946 hartrees
  
  
  Level shifts adjusted to satisfy step-size constraints
   Step size:    0.3001149
   Cos(theta):   0.9928324
  
   Final level shift:  -3.0457419E+00
  gradient maximum:        3.7649E-01 .  (  4.5000E-04 )
  gradient rms:            5.8766E-02 .  (  3.0000E-04 )
  step size:   0.29996  trust radius:   0.30000
  displacement maximum:    8.4858E-02 .  (  1.8000E-03 )
  displacement rms:        1.5228E-02 .  (  1.2000E-03 )
  predicted energy change:    -3.0794E-01    geom step:   2.9996E-01    full step:   2.9996E-01
  molecular structure not yet converged...
  
  center of mass moved by:
     x:     3.4626E-17     y:     1.4767E-16     z:    -6.7611E-03
  
  new geometry: 
                                   angstroms
  atom               x                 y                 z
  C1            4.2125632258     -0.2207962861      2.0023104640 
  C2            4.0595995302      1.1004206406      2.0142483651 
  C3            2.6635372630      1.3217759673      1.9877036163 
  N4            1.9290611148      0.2007291232      1.9727104121 
  C5            2.8884937860     -0.7364625638      1.9794713526 
  C6            2.5973942974     -2.1004571089      1.9802701344 
  C7            1.3249007379     -2.6710744558      1.9763203432 
  N8            0.2106211986     -1.9292366863      1.9678223697 
  C9           -0.7257189168     -2.8827012812      1.9737948164 
  C10          -0.2227562128     -4.2070458812      1.9840368560 
  C11           1.0975825362     -4.0705868474      1.9890519980 
  N12          -1.9290611148     -0.2007291232      1.9727104121 
  C13          -2.8884937860      0.7364625638      1.9794713526 
  C14          -4.2125632258      0.2207962861      2.0023104640 
  C15          -4.0595995302     -1.1004206406      2.0142483651 
  C16          -2.5973942974      2.1004571089      1.9802701344 
  C17          -1.3249007379      2.6710744558      1.9763203432 
  N18          -0.2106211986      1.9292366863      1.9678223697 
  C19           0.7257189168      2.8827012812      1.9737948164 
  C20           0.2227562128      4.2070458812      1.9840368560 
  C21          -1.0975825362      4.0705868474      1.9890519980 
  C22           2.0888796828      2.5915370106      1.9857071575 
  C23          -2.0888796828     -2.5915370106      1.9857071575 
  C24          -2.6635372630     -1.3217759673      1.9877036163 
  Co25          0.0000000000      0.0000000000      1.9592974049 
  C26           5.5269172989     -0.9812741846      2.0309381800 
  H27           4.8296286055      1.8307354855      2.0312467139 
  H28           3.4161808383     -2.7528830641      1.9915578218 
  H29          -0.7605843969     -5.1216628084      1.9901839765 
  H30           1.8079294279     -4.8586692040      2.0023334243 
  C31          -5.5269172989      0.9812741846      2.0309381800 
  H32          -4.8296286055     -1.8307354855      2.0312467139 
  H33          -3.4161808383      2.7528830641      1.9915578218 
  H34           0.7605843969      5.1216628084      1.9901839765 
  H35          -1.8079294279      4.8586692040      2.0023334243 
  H36           2.7455976728      3.4070607038      1.9998484782 
  H37          -2.7455976728     -3.4070607038      1.9998484782 
  C38           4.2092075939     -0.3379739421     -2.1166756709 
  C39           4.0971694493      1.0157944755     -2.1311944792 
  C40           2.6999981396      1.2529916142     -2.1276923141 
  N41           1.9366782511      0.1446865940     -2.1255486707 
  C42           2.8649441569     -0.8163494455     -2.1230376757 
  C43           2.5370411824     -2.1696210995     -2.1217650718 
  C44           1.2519702738     -2.7035737962     -2.1241735632 
  N45           0.1551190473     -1.9309539410     -2.1261328626 
  C46          -0.8086280725     -2.8639112579     -2.1278653795 
  C47          -0.3322346684     -4.1953475711     -2.1288563403 
  C48           0.9916070350     -4.0948272211     -2.1265996209 
  N49          -1.9366782511     -0.1446865940     -2.1255486707 
  C50          -2.8649441569      0.8163494455     -2.1230376757 
  C51          -4.2092075939      0.3379739421     -2.1166756709 
  C52          -4.0971694493     -1.0157944755     -2.1311944792 
  C53          -2.5370411824      2.1696210995     -2.1217650718 
  C54          -1.2519702738      2.7035737962     -2.1241735632 
  N55          -0.1551190473      1.9309539410     -2.1261328626 
  C56           0.8086280725      2.8639112579     -2.1278653795 
  C57           0.3322346684      4.1953475711     -2.1288563403 
  C58          -0.9916070350      4.0948272211     -2.1265996209 
  C59           2.1595239449      2.5372256733     -2.1286524135 
  C60          -2.1595239449     -2.5372256733     -2.1286524135 
  C61          -2.6999981396     -1.2529916142     -2.1276923141 
  Co62          0.0000000000      0.0000000000     -2.1272969558 
  H63           5.0826406397     -0.9649125186     -2.1347244715 
  C64           5.6529200926      1.0075536219     -1.4292932368 
  H65           3.3408945444     -2.8410626298     -2.1185426146 
  H66          -0.8886931658     -5.0987902744     -2.1303657777 
  H67           1.6829335893     -4.8997528100     -2.1271135841 
  H68          -5.0826406397      0.9649125186     -2.1347244715 
  C69          -5.6529200926     -1.0075536219     -1.4292932368 
  H70          -3.3408945444      2.8410626298     -2.1185426146 
  H71           0.8886931658      5.0987902744     -2.1303657777 
  H72          -1.6829335893      4.8997528100     -2.1271135841 
  H73           2.8394370590      3.3327036295     -2.1297138060 
  H74          -2.8394370590     -3.3327036295     -2.1297138060 
  C75           6.1624655227     -0.7667520715      0.8826635493 
  N76           6.1151133108     -0.3372540337     -0.5675918989 
  C77          -6.1624655227      0.7667520715      0.8826635493 
  N78          -6.1151133108      0.3372540337     -0.5675918989 
  O79          -7.3661108540      0.7145516735      0.9917212006 
  O80           7.3661108540     -0.7145516735      0.9917212006 
  H81           6.1174202080     -0.5366253176      2.6770298069 
  H82           5.3480316010     -2.0374748914      2.3902609565 
  H83          -6.1174202080      0.5366253176      2.6770298069 
  H84          -5.3480316010      2.0374748914      2.3902609565 
  H85           5.0936332137     -0.8115644479     -0.3538849104 
  H86          -5.0936332137      0.8115644479     -0.3538849104 
  H87           6.6212819817      0.7249644205     -2.0517808326 
  H88           5.5711687106      1.9241033986     -1.8533498447 
  H89          -6.6212819817     -0.7249644205     -2.0517808326 
  H90          -5.5711687106     -1.9241033986     -1.8533498447 
   
 
  bond lengths (angstroms):
 
 C1      -C2      :   1.330096      C1      -C5      :   1.421124
 C1      -C26     :   1.518773      C2      -C3      :   1.413751
 C2      -H27     :   1.061411      C3      -N4      :   1.340308
 C3      -C22     :   1.393746      N4      -C5      :   1.341225
 N4      -Co25    :   1.939523      C5      -C6      :   1.394712
 C6      -C7      :   1.394582      C6      -H28     :   1.046995
 C7      -N8      :   1.338661      C7      -C11     :   1.417911
 N8      -C9      :   1.336362      N8      -Co25    :   1.940718
 C9      -C10     :   1.416674      C9      -C23     :   1.393960
 C10     -C11     :   1.327381      C10     -H29     :   1.061047
 C11     -H30     :   1.061057      N12     -C13     :   1.341225
 N12     -C24     :   1.340308      N12     -Co25    :   1.939523
 C13     -C14     :   1.421124      C13     -C16     :   1.394712
 C14     -C15     :   1.330096      C14     -C31     :   1.518773
 C15     -C24     :   1.413751      C15     -H32     :   1.061411
 C16     -C17     :   1.394582      C16     -H33     :   1.046995
 C17     -N18     :   1.338661      C17     -C21     :   1.417911
 N18     -C19     :   1.336362      N18     -Co25    :   1.940718
 C19     -C20     :   1.416674      C19     -C22     :   1.393960
 C20     -C21     :   1.327381      C20     -H34     :   1.061047
 C21     -H35     :   1.061057      C22     -H36     :   1.047166
 C23     -C24     :   1.393746      C23     -H37     :   1.047166
 C26     -C75     :   1.329841      C26     -H81     :   0.981754
 C26     -H82     :   1.129900      C31     -C77     :   1.329841
 C31     -H83     :   0.981754      C31     -H84     :   1.129900
 C38     -C39     :   1.358474      C38     -C42     :   1.426859
 C38     -H63     :   1.075297      C39     -C40     :   1.417167
 C39     -C64     :   1.706779      C40     -N41     :   1.345735
 C40     -C59     :   1.393331      N41     -C42     :   1.336142
 N41     -Co62    :   1.942076      C42     -C43     :   1.392432
 C43     -C44     :   1.391588      C43     -H65     :   1.047389
[...]
 H65     -C43     -C42     : 118.012981  H65     -C43     -C44     : 117.789707
 N45     -C44     -C43     : 125.331412  C48     -C44     -C43     : 123.960150
 C48     -C44     -N45     : 110.640798  C46     -N45     -C44     : 104.953292
 Co62    -N45     -C44     : 127.469058  Co62    -N45     -C46     : 127.571770
 C47     -C46     -N45     : 110.585113  C60     -C46     -N45     : 125.848210
 C60     -C46     -C47     : 123.484922  C48     -C47     -C46     : 106.922680
 H66     -C47     -C46     : 124.350085  H66     -C47     -C48     : 128.716090
 C47     -C48     -C44     : 106.868307  H67     -C48     -C44     : 124.602784
 H67     -C48     -C47     : 128.520259  C61     -N49     -C50     : 105.490312
 Co62    -N49     -C50     : 126.811022  Co62    -N49     -C61     : 127.690163
 C51     -C50     -N49     : 110.633965  C53     -C50     -N49     : 125.097281
 C53     -C50     -C51     : 124.060311  C52     -C51     -C50     : 107.238919
 H68     -C51     -C50     : 124.652475  H68     -C51     -C52     : 128.061187
 C61     -C52     -C51     : 105.907062  C69     -C52     -C51     : 127.285044
 C69     -C52     -C61     : 126.508845  C54     -C53     -C50     : 124.018606
 H70     -C53     -C50     : 118.012981  H70     -C53     -C54     : 117.789707
 N55     -C54     -C53     : 125.331412  C58     -C54     -C53     : 123.960150
 C58     -C54     -N55     : 110.640798  C56     -N55     -C54     : 104.953292
 Co62    -N55     -C54     : 127.469058  Co62    -N55     -C56     : 127.571770
 C57     -C56     -N55     : 110.585113  C59     -C56     -N55     : 125.848210
 C59     -C56     -C57     : 123.484922  C58     -C57     -C56     : 106.922680
 H71     -C57     -C56     : 124.350085  H71     -C57     -C58     : 128.716090
 C57     -C58     -C54     : 106.868307  H72     -C58     -C54     : 124.602784
 H72     -C58     -C57     : 128.520259  C56     -C59     -C40     : 123.410333
 H73     -C59     -C40     : 118.800740  H73     -C59     -C56     : 117.716693
 C61     -C60     -C46     : 123.410333  H74     -C60     -C46     : 117.716693
 H74     -C60     -C61     : 118.800740  C52     -C61     -N49     : 110.676550
 C60     -C61     -N49     : 124.677310  C60     -C61     -C52     : 124.547680
 N45     -Co62    -N41     :  90.369345  N49     -Co62    -N41     : 179.034470
 N49     -Co62    -N45     :  89.631296  N55     -Co62    -N41     :  89.631296
 N55     -Co62    -N45     : 179.923912  N55     -Co62    -N49     :  90.369345
 N76     -C64     -C39     : 110.550081  H87     -C64     -C39     : 109.859508
 H87     -C64     -N76     : 109.245665  H88     -C64     -C39     : 112.931392
 H88     -C64     -N76     : 106.259224  H88     -C64     -H87     : 107.861842
 N78     -C69     -C52     : 110.550081  H89     -C69     -C52     : 109.859508
 H89     -C69     -N78     : 109.245665  H90     -C69     -C52     : 112.931392
 H90     -C69     -N78     : 106.259224  H90     -C69     -H89     : 107.861842
 N76     -C75     -C26     : 114.694108  O80     -C75     -C26     : 121.748647
 O80     -C75     -N76     : 123.511706  C75     -N76     -C64     : 121.748315
 H85     -N76     -C64     : 115.095919  H85     -N76     -C75     : 116.804050
 N78     -C77     -C31     : 114.694108  O79     -C77     -C31     : 121.748647
 O79     -C77     -N78     : 123.511706  C77     -N78     -C69     : 121.748315
 H86     -N78     -C69     : 115.095919  H86     -N78     -C77     : 116.804050
 
  torsional angles:
 
 C1      -C2      -C3      -N4      :  -0.118142
 C1      -C2      -C3      -C22     :-179.794953
 C1      -C5      -N4      -C3      :  -1.459293
 C1      -C5      -N4      -Co25    : 175.826740
 C1      -C5      -C6      -C7      :-179.151255
 C1      -C5      -C6      -H28     :   2.359035
 C1      -C26     -C75     -N76     : -95.535530
 C1      -C26     -C75     -O80     :  82.091527
 C2      -C1      -C5      -N4      :   1.422761
 C2      -C1      -C5      -C6      :-177.060122
 C2      -C1      -C26     -C75     : -81.023608
 C2      -C1      -C26     -H81     :  35.880286
 C2      -C1      -C26     -H82     : 155.782883
 C2      -C3      -N4      -C5      :   0.973441
 C2      -C3      -N4      -Co25    :-176.358988
 C2      -C3      -C22     -C19     : 176.813859
 C2      -C3      -C22     -H36     :  -1.974797
 C3      -C2      -C1      -C5      :  -0.760095
 C3      -C2      -C1      -C26     : 173.239916
 C3      -N4      -C5      -C6      : 177.020084
 C3      -N4      -Co25    -N8      :-179.438690
 C3      -N4      -Co25    -N12     :  89.804073
 C3      -N4      -Co25    -N18     :  -0.948858
 C3      -C22     -C19     -N18     :  -0.438318
 C3      -C22     -C19     -C20     :-179.067996
 N4      -C3      -C2      -H27     : 178.091641
 N4      -C3      -C22     -C19     :  -2.814515
 N4      -C3      -C22     -H36     : 178.396829
 N4      -C5      -C1      -C26     :-172.488946
 N4      -C5      -C6      -C7      :   2.570966
 N4      -C5      -C6      -H28     :-175.918744
 N4      -Co25    -N8      -C7      :   0.030386
 N4      -Co25    -N8      -C9      : 178.649342
 N4      -Co25    -N12     -C13     : -86.909245
 N4      -Co25    -N12     -C24     :  89.804073
 N4      -Co25    -N18     -C17     : 179.439908
 N4      -Co25    -N18     -C19     :  -1.941136
 C5      -C1      -C2      -H27     :-178.908700
 C5      -C1      -C26     -C75     :  91.705533
 C5      -C1      -C26     -H81     :-151.390573
 C5      -C1      -C26     -H82     : -31.487976
 C5      -N4      -C3      -C22     :-179.358605
 C5      -N4      -Co25    -N8      :   3.847992
 C5      -N4      -Co25    -N12     : -86.909245
 C5      -N4      -Co25    -N18     :-177.662176
 C5      -C6      -C7      -N8      :   1.664108
 C5      -C6      -C7      -C11     :-179.298826
 C6      -C5      -C1      -C26     :   9.028171
 C6      -C5      -N4      -Co25    :  -5.693884
 C6      -C7      -N8      -C9      : 178.594833
 C6      -C7      -N8      -Co25    :  -2.542846
 C6      -C7      -C11     -C10     :-178.798163
 C6      -C7      -C11     -H30     :   1.022548
 C7      -N8      -C9      -C10     :   0.538996
 C7      -N8      -C9      -C23     :-178.243833
 C7      -N8      -Co25    -N12     : 179.439908
 C7      -N8      -Co25    -N18     : -90.270359
 C7      -C11     -C10     -C9      :  -0.017036
 C7      -C11     -C10     -H29     : 179.746849
 N8      -C7      -C6      -H28     :-179.826624
 N8      -C7      -C11     -C10     :   0.360319
 N8      -C7      -C11     -H30     :-179.818971
 N8      -C9      -C10     -C11     :  -0.330716
 N8      -C9      -C10     -H29     : 179.892612
 N8      -C9      -C23     -C24     :  -0.438318
 N8      -C9      -C23     -H37     : 178.347157
 N8      -Co25    -N12     -C13     :-177.662176
 N8      -Co25    -N12     -C24     :  -0.948858
 N8      -Co25    -N18     -C17     : -90.270359
 N8      -Co25    -N18     -C19     :  88.348597
 C9      -N8      -C7      -C11     :  -0.549299
 C9      -N8      -Co25    -N12     :  -1.941136
 C9      -N8      -Co25    -N18     :  88.348597
 C9      -C10     -C11     -H30     :-179.827959
 C9      -C23     -C24     -N12     :  -2.814515
 C9      -C23     -C24     -C15     : 176.813859
 C10     -C9      -N8      -Co25    :-178.329354
 C10     -C9      -C23     -C24     :-179.067996
 C10     -C9      -C23     -H37     :  -0.282521
 C11     -C7      -C6      -H28     :  -0.789558
 C11     -C7      -N8      -Co25    : 178.313022
 C11     -C10     -C9      -C23     : 178.468614
 N12     -C13     -C14     -C15     :   1.422761
 N12     -C13     -C14     -C31     :-172.488946
 N12     -C13     -C16     -C17     :   2.570966
 N12     -C13     -C16     -H33     :-175.918744
 N12     -C24     -C15     -C14     :  -0.118142
 N12     -C24     -C15     -H32     : 178.091641
 N12     -C24     -C23     -H37     : 178.396829
 N12     -Co25    -N18     -C17     :   0.030386
 N12     -Co25    -N18     -C19     : 178.649342
 C13     -N12     -C24     -C15     :   0.973441
 C13     -N12     -C24     -C23     :-179.358605
 C13     -N12     -Co25    -N18     :   3.847992
 C13     -C14     -C15     -C24     :  -0.760095
 C13     -C14     -C15     -H32     :-178.908700
 C13     -C14     -C31     -C77     :  91.705533
 C13     -C14     -C31     -H83     :-151.390573
 C13     -C14     -C31     -H84     : -31.487976
 C13     -C16     -C17     -N18     :   1.664108
 C13     -C16     -C17     -C21     :-179.298826
 C14     -C13     -N12     -C24     :  -1.459293
 C14     -C13     -N12     -Co25    : 175.826740
 C14     -C13     -C16     -C17     :-179.151255
 C14     -C13     -C16     -H33     :   2.359035
 C14     -C15     -C24     -C23     :-179.794953
 C14     -C31     -C77     -N78     : -95.535530
 C14     -C31     -C77     -O79     :  82.091527
 C15     -C14     -C13     -C16     :-177.060122
 C15     -C14     -C31     -C77     : -81.023608
 C15     -C14     -C31     -H83     :  35.880286
 C15     -C14     -C31     -H84     : 155.782883
 C15     -C24     -N12     -Co25    :-176.358988
 C15     -C24     -C23     -H37     :  -1.974797
 C16     -C13     -N12     -C24     : 177.020084
 C16     -C13     -N12     -Co25    :  -5.693884
 C16     -C13     -C14     -C31     :   9.028171
 C16     -C17     -N18     -C19     : 178.594833
 C16     -C17     -N18     -Co25    :  -2.542846
 C16     -C17     -C21     -C20     :-178.798163
 C16     -C17     -C21     -H35     :   1.022548
 C17     -N18     -C19     -C20     :   0.538996
 C17     -N18     -C19     -C22     :-178.243833
 C17     -C21     -C20     -C19     :  -0.017036
 C17     -C21     -C20     -H34     : 179.746849
 N18     -C17     -C16     -H33     :-179.826624
 N18     -C17     -C21     -C20     :   0.360319
 N18     -C17     -C21     -H35     :-179.818971
 N18     -C19     -C20     -C21     :  -0.330716
 N18     -C19     -C20     -H34     : 179.892612
 N18     -C19     -C22     -H36     : 178.347157
 N18     -Co25    -N12     -C24     :-179.438690
 C19     -N18     -C17     -C21     :  -0.549299
 C19     -C20     -C21     -H35     :-179.827959
 C20     -C19     -N18     -Co25    :-178.329354
 C20     -C19     -C22     -H36     :  -0.282521
 C21     -C17     -C16     -H33     :  -0.789558
 C21     -C17     -N18     -Co25    : 178.313022
 C21     -C20     -C19     -C22     : 178.468614
 C22     -C3      -C2      -H27     :  -1.585171
 C22     -C3      -N4      -Co25    :   3.308965
 C22     -C19     -N18     -Co25    :   2.887817
 C22     -C19     -C20     -H34     :  -1.308058
 C23     -C9      -N8      -Co25    :   2.887817
 C23     -C9      -C10     -H29     :  -1.308058
 C23     -C24     -N12     -Co25    :   3.308965
 C23     -C24     -C15     -H32     :  -1.585171
 C24     -C15     -C14     -C31     : 173.239916
 C26     -C1      -C2      -H27     :  -4.908688
 C26     -C75     -N76     -C64     : 160.282224
 C26     -C75     -N76     -H85     :   9.656929
 H29     -C10     -C11     -H30     :  -0.064073
 C31     -C14     -C15     -H32     :  -4.908688
 C31     -C77     -N78     -C69     : 160.282224
 C31     -C77     -N78     -H86     :   9.656929
 H34     -C20     -C21     -H35     :  -0.064073
 C38     -C39     -C40     -N41     :   1.901180
 C38     -C39     -C40     -C59     :-174.629352
 C38     -C39     -C64     -N76     : -96.545128
 C38     -C39     -C64     -H87     :  24.097670
 C38     -C39     -C64     -H88     : 144.555881
 C38     -C42     -N41     -C40     :  -0.843996
 C38     -C42     -N41     -Co62    :-179.844299
 C38     -C42     -C43     -C44     : 169.987586
 C38     -C42     -C43     -H65     :  -5.037184
 C39     -C38     -C42     -N41     :   2.067816
 C39     -C38     -C42     -C43     :-172.913171
 C39     -C40     -N41     -C42     :  -0.623685
 C39     -C40     -N41     -Co62    : 178.364883
 C39     -C40     -C59     -C56     : 171.362501
 C39     -C40     -C59     -H73     :  -5.472606
 C39     -C64     -N76     -C75     :-102.337330
 C39     -C64     -N76     -H85     :  48.751491
 C40     -C39     -C38     -C42     :  -2.301558
 C40     -C39     -C38     -H63     :-179.863678
 C40     -C39     -C64     -N76     :  76.274132
 C40     -C39     -C64     -H87     :-163.083070
 C40     -C39     -C64     -H88     : -42.624860
 C40     -N41     -C42     -C43     : 174.073817
 C40     -N41     -Co62    -N45     :-169.651777
 C40     -N41     -Co62    -N49     : 100.313289
 C40     -N41     -Co62    -N55     :  10.272136
 C40     -C59     -C56     -N55     :   5.028714
 C40     -C59     -C56     -C57     :-171.369353
 N41     -C40     -C39     -C64     :-172.163039
 N41     -C40     -C59     -C56     :  -4.689663
 N41     -C40     -C59     -H73     : 178.475230
 N41     -C42     -C38     -H63     : 179.734499
 N41     -C42     -C43     -C44     :  -4.269271
 N41     -C42     -C43     -H65     :-179.294042
 N41     -Co62    -N45     -C44     :  -7.986206
 N41     -Co62    -N45     -C46     : 170.996504
 N41     -Co62    -N49     -C50     : -80.904167
 N41     -Co62    -N49     -C61     : 100.313289
 N41     -Co62    -N55     -C54     : 171.048245
 N41     -Co62    -N55     -C56     :  -9.969045
 C42     -C38     -C39     -C64     : 171.701760
 C42     -N41     -C40     -C59     : 175.901418
 C42     -N41     -Co62    -N45     :   9.130767
 C42     -N41     -Co62    -N49     : -80.904167
 C42     -N41     -Co62    -N55     :-170.945319
 C42     -C43     -C44     -N45     :   5.622806
 C42     -C43     -C44     -C48     :-171.103056
 C43     -C42     -C38     -H63     :   4.753512
 C43     -C42     -N41     -Co62    :  -4.926486
 C43     -C44     -N45     -C46     :-176.634347
 C43     -C44     -N45     -Co62    :   2.531113
 C43     -C44     -C48     -C47     : 175.718792
 C43     -C44     -C48     -H67     :  -3.288986
 C44     -N45     -C46     -C47     :   0.636726
 C44     -N45     -C46     -C60     :-176.154694
 C44     -N45     -Co62    -N49     : 171.048245
 C44     -N45     -Co62    -N55     : -98.468735
 C44     -C48     -C47     -C46     :   1.735190
 C44     -C48     -C47     -H66     :-179.453274
 N45     -C44     -C43     -H65     :-179.342142
 N45     -C44     -C48     -C47     :  -1.427249
 N45     -C44     -C48     -H67     : 179.564973
 N45     -C46     -C47     -C48     :  -1.537593
 N45     -C46     -C47     -H66     : 179.585580
 N45     -C46     -C60     -C61     :   5.028714
 N45     -C46     -C60     -H74     :-178.104122
 N45     -Co62    -N49     -C50     :-170.945319
 N45     -Co62    -N49     -C61     :  10.272136
 N45     -Co62    -N55     -C54     : -98.468735
 N45     -Co62    -N55     -C56     :  80.513975
 C46     -N45     -C44     -C48     :   0.464057
 C46     -N45     -Co62    -N49     :  -9.969045
 C46     -N45     -Co62    -N55     :  80.513975
 C46     -C47     -C48     -H67     :-179.308680
 C46     -C60     -C61     -N49     :  -4.689663
 C46     -C60     -C61     -C52     : 171.362501
 C47     -C46     -N45     -Co62    :-178.527584
 C47     -C46     -C60     -C61     :-171.369353
 C47     -C46     -C60     -H74     :   5.497810
 C48     -C44     -C43     -H65     :   3.931995
 C48     -C44     -N45     -Co62    : 179.629517
 C48     -C47     -C46     -C60     : 175.344169
 N49     -C50     -C51     -C52     :   2.067816
 N49     -C50     -C51     -H68     : 179.734499
 N49     -C50     -C53     -C54     :  -4.269271
 N49     -C50     -C53     -H70     :-179.294042
 N49     -C61     -C52     -C51     :   1.901180
 N49     -C61     -C52     -C69     :-172.163039
 N49     -C61     -C60     -H74     : 178.475230
 N49     -Co62    -N55     -C54     :  -7.986206
 N49     -Co62    -N55     -C56     : 170.996504
 C50     -N49     -C61     -C52     :  -0.623685
 C50     -N49     -C61     -C60     : 175.901418
 C50     -N49     -Co62    -N55     :   9.130767
 C50     -C51     -C52     -C61     :  -2.301558
 C50     -C51     -C52     -C69     : 171.701760
 C50     -C53     -C54     -N55     :   5.622806
 C50     -C53     -C54     -C58     :-171.103056
 C51     -C50     -N49     -C61     :  -0.843996
 C51     -C50     -N49     -Co62    :-179.844299
 C51     -C50     -C53     -C54     : 169.987586
 C51     -C50     -C53     -H70     :  -5.037184
 C51     -C52     -C61     -C60     :-174.629352
 C51     -C52     -C69     -N78     : -96.545128
 C51     -C52     -C69     -H89     :  24.097670
 C51     -C52     -C69     -H90     : 144.555881
 C52     -C51     -C50     -C53     :-172.913171
 C52     -C61     -N49     -Co62    : 178.364883
 C52     -C61     -C60     -H74     :  -5.472606
 C52     -C69     -N78     -C77     :-102.337330
 C52     -C69     -N78     -H86     :  48.751491
 C53     -C50     -N49     -C61     : 174.073817
 C53     -C50     -N49     -Co62    :  -4.926486
 C53     -C50     -C51     -H68     :   4.753512
 C53     -C54     -N55     -C56     :-176.634347
 C53     -C54     -N55     -Co62    :   2.531113
 C53     -C54     -C58     -C57     : 175.718792
 C53     -C54     -C58     -H72     :  -3.288986
 C54     -N55     -C56     -C57     :   0.636726
 C54     -N55     -C56     -C59     :-176.154694
 C54     -C58     -C57     -C56     :   1.735190
 C54     -C58     -C57     -H71     :-179.453274
 N55     -C54     -C53     -H70     :-179.342142
 N55     -C54     -C58     -C57     :  -1.427249
 N55     -C54     -C58     -H72     : 179.564973
 N55     -C56     -C57     -C58     :  -1.537593
 N55     -C56     -C57     -H71     : 179.585580
 N55     -C56     -C59     -H73     :-178.104122
 N55     -Co62    -N49     -C61     :-169.651777
 C56     -N55     -C54     -C58     :   0.464057
 C56     -C57     -C58     -H72     :-179.308680
 C57     -C56     -N55     -Co62    :-178.527584
 C57     -C56     -C59     -H73     :   5.497810
 C58     -C54     -C53     -H70     :   3.931995
 C58     -C54     -N55     -Co62    : 179.629517
 C58     -C57     -C56     -C59     : 175.344169
 C59     -C40     -C39     -C64     :  11.306429
 C59     -C40     -N41     -Co62    :  -5.110013
 C59     -C56     -N55     -Co62    :   4.680996
 C59     -C56     -C57     -H71     :  -3.532658
 C60     -C46     -N45     -Co62    :   4.680996
 C60     -C46     -C47     -H66     :  -3.532658
 C60     -C61     -N49     -Co62    :  -5.110013
 C60     -C61     -C52     -C69     :  11.306429
 C61     -C52     -C51     -H68     :-179.863678
 C61     -C52     -C69     -N78     :  76.274132
 C61     -C52     -C69     -H89     :-163.083070
 C61     -C52     -C69     -H90     : -42.624860
 H63     -C38     -C39     -C64     :  -5.860360
 C64     -N76     -C75     -O80     : -17.297584
 H66     -C47     -C48     -H67     :  -0.497143
 H68     -C51     -C52     -C69     :  -5.860360
 C69     -N78     -C77     -O79     : -17.297584
 H71     -C57     -C58     -H72     :  -0.497143
 C75     -N76     -C64     -H87     : 136.654528
 C75     -N76     -C64     -H88     :  20.535507
 N76     -C75     -C26     -H81     : 145.669661
 N76     -C75     -C26     -H82     :  28.077975
 C77     -N78     -C69     -H89     : 136.654528
 C77     -N78     -C69     -H90     :  20.535507
 N78     -C77     -C31     -H83     : 145.669661
 N78     -C77     -C31     -H84     :  28.077975
 O79     -C77     -C31     -H83     : -36.703283
 O79     -C77     -C31     -H84     :-154.294968
 O79     -C77     -N78     -H86     :-167.922880
 O80     -C75     -C26     -H81     : -36.703283
 O80     -C75     -C26     -H82     :-154.294968
 O80     -C75     -N76     -H85     :-167.922880
 H85     -N76     -C64     -H87     : -72.256652
 H85     -N76     -C64     -H88     : 171.624328
 H86     -N78     -C69     -H89     : -72.256652
 H86     -N78     -C69     -H90     : 171.624328
 
  nuclear repulsion energy.......    9833.649122803 hartrees
  -------------------------------------------------
 /  end of geometry optimization iteration  45   /
 -------------------------------------------------
   
  end of program geopt
   
 Total cpu seconds     user:  303896.482   user+sys:  307561.372
  
 Total elapsed time:    313725 seconds

Job co2ftf4-c2a completed on sahp5351.sandia.gov at Mon Feb  2 04:04:10 2004
